{"type":"data","nodes":[{"data":null},{"data":{"element":{"name":"Tellurium","appearance":null,"atomic_mass":127.603,"category":"metalloid","density":6.24,"discoverer":"Franz von Reichenstein","molar_heat":25.73,"number":52,"period":5,"phase":"Solid","spectral_img":null,"summary":"Tellurium is a chemical element with symbol Te and atomic number 52. It is a brittle, mildly toxic, rare, silver-white metalloid. Tellurium is chemically related to selenium and sulfur.","symbol":"Te","shells":[2,8,18,18,6],"electron_configuration":"1s2 2s2 2p6 3s2 3p6 4s2 3d10 4p6 5s2 4d10 5p4","electron_configuration_semantic":"[Kr] 4d10 5s2 5p4","electron_affinity":190.161,"electronegativity_pauling":2.1,"ionization_energies":[869.3,1790,2698,3610,5668,6820,13200],"cpk-hex":"d47a00","row":5,"column":16,"n_neutrons":76,"n_protons":52,"n_electrons":52,"radioactive":null,"natural":true,"metal":null,"nonmetal":null,"metalloid":true,"atomic_radius":1.4,"electronegativity":2.1,"first_ionization":9.0096,"melting_point":722.8,"boiling_point":1261,"number_of_isotopes":29,"year":1782,"specific_heat":0.202,"n_shells":5,"n_valence":6,"jmol_color":"(0.831, 0.478, 0.0)","covalent_radius":1.38}}}]}