{"type":"data","nodes":[{"data":null},{"data":{"element":{"name":"Potassium","appearance":"silvery gray","atomic_mass":39.09831,"category":"alkali metal","density":0.862,"discoverer":"Humphry Davy","molar_heat":29.6,"number":19,"period":4,"phase":"Solid","spectral_img":"https://wikipedia.org/wiki/File:Potassium_Spectrum.jpg","summary":"Potassium is a chemical element with symbol K (derived from Neo-Latin, kalium) and atomic number 19. It was first isolated from potash, the ashes of plants, from which its name is derived. In the Periodic table, potassium is one of seven elements in column (group) 1 (alkali metals):they all have a single valence electron in their outer electron shell, which they readily give up to create an atom with a positive charge - a cation, and combine with anions to form salts.","symbol":"K","shells":[2,8,8,1],"electron_configuration":"1s2 2s2 2p6 3s2 3p6 4s1","electron_configuration_semantic":"[Ar] 4s1","electron_affinity":48.383,"electronegativity_pauling":0.82,"ionization_energies":[418.8,3052,4420,5877,7975,9590,11343,14944,16963.7,48610,54490,60730,68950,75900,83080,93400,99710,444880,476063],"cpk-hex":"8f40d4","row":4,"column":1,"n_neutrons":20,"n_protons":19,"n_electrons":19,"radioactive":null,"natural":true,"metal":true,"nonmetal":null,"metalloid":null,"atomic_radius":2.8,"electronegativity":0.82,"first_ionization":4.3407,"melting_point":336.5,"boiling_point":1032,"number_of_isotopes":10,"year":1807,"specific_heat":0.757,"n_shells":4,"n_valence":1,"jmol_color":"(0.561, 0.251, 0.831)","covalent_radius":2.03}}}]}