{"type":"data","nodes":[{"data":null},{"data":{"element":{"name":"Sulfur","appearance":"lemon yellow sintered microcrystals","atomic_mass":32.06,"category":"polyatomic nonmetal","density":2.07,"discoverer":"Ancient china","molar_heat":22.75,"number":16,"period":3,"phase":"Solid","spectral_img":"https://wikipedia.org/wiki/File:Sulfur_Spectrum.jpg","summary":"Sulfur or sulphur (see spelling differences) is a chemical element with symbol S and atomic number 16. It is an abundant, multivalent non-metal. Under normal conditions, sulfur atoms form cyclic octatomic molecules with chemical formula S8.","symbol":"S","shells":[2,8,6],"electron_configuration":"1s2 2s2 2p6 3s2 3p4","electron_configuration_semantic":"[Ne] 3s2 3p4","electron_affinity":200.4101,"electronegativity_pauling":2.58,"ionization_energies":[999.6,2252,3357,4556,7004.3,8495.8,27107,31719,36621,43177,48710,54460,62930,68216,311048,337138],"cpk-hex":"ffff30","row":3,"column":16,"n_neutrons":16,"n_protons":16,"n_electrons":16,"radioactive":null,"natural":true,"metal":null,"nonmetal":true,"metalloid":null,"atomic_radius":1.1,"electronegativity":2.58,"first_ionization":10.36,"melting_point":388.51,"boiling_point":717.8,"number_of_isotopes":10,"year":1809,"specific_heat":0.71,"n_shells":3,"n_valence":6,"jmol_color":"(1.0, 1.0, 0.188)","covalent_radius":1.05}}}]}