{"type":"data","nodes":[{"data":null},{"data":{"element":{"name":"Cesium","appearance":"silvery gold","atomic_mass":132.905451966,"category":"alkali metal","density":1.93,"discoverer":"Robert Bunsen","molar_heat":32.21,"number":55,"period":6,"phase":"Solid","spectral_img":null,"summary":"Caesium or cesium is a chemical element with symbol Cs and atomic number 55. It is a soft, silvery-gold alkali metal with a melting point of 28 °C (82 °F), which makes it one of only five elemental metals that are liquid at or near room temperature. Caesium is an alkali metal and has physical and chemical properties similar to those of rubidium and potassium.","symbol":"Cs","shells":[2,8,18,18,8,1],"electron_configuration":"1s2 2s2 2p6 3s2 3p6 4s2 3d10 4p6 5s2 4d10 5p6 6s1","electron_configuration_semantic":"[Xe] 6s1","electron_affinity":45.505,"electronegativity_pauling":0.79,"ionization_energies":[375.7,2234.3,3400],"cpk-hex":"57178f","row":6,"column":1,"n_neutrons":78,"n_protons":55,"n_electrons":55,"radioactive":null,"natural":true,"metal":true,"nonmetal":null,"metalloid":null,"atomic_radius":3.3,"electronegativity":0.79,"first_ionization":3.8939,"melting_point":301.7,"boiling_point":944,"number_of_isotopes":22,"year":1860,"specific_heat":0.242,"n_shells":6,"n_valence":1,"jmol_color":"(0.341, 0.09, 0.561)","covalent_radius":2.44}}}]}