{"type":"data","nodes":[{"data":null},{"data":{"element":{"name":"Bohrium","appearance":null,"atomic_mass":270,"category":"transition metal","density":37.1,"discoverer":"Gesellschaft für Schwerionenforschung","molar_heat":null,"number":107,"period":7,"phase":"Solid","spectral_img":null,"summary":"Bohrium is a chemical element with symbol Bh and atomic number 107. It is named after Danish physicist Niels Bohr. It is a synthetic element (an element that can be created in a laboratory but is not found in nature) and radioactive; the most stable known isotope, 270Bh, has a half-life of approximately 61 seconds.","symbol":"Bh","shells":[2,8,18,32,32,13,2],"electron_configuration":"1s2 2s2 2p6 3s2 3p6 4s2 3d10 4p6 5s2 4d10 5p6 6s2 4f14 5d10 6p6 7s2 5f14 6d5","electron_configuration_semantic":"*[Rn] 5f14 6d5 7s2","electron_affinity":null,"electronegativity_pauling":null,"ionization_energies":[],"cpk-hex":"e00038","row":7,"column":7,"n_neutrons":157,"n_protons":107,"n_electrons":107,"radioactive":true,"natural":null,"metal":true,"nonmetal":null,"metalloid":null,"atomic_radius":null,"electronegativity":null,"first_ionization":null,"melting_point":null,"boiling_point":null,"number_of_isotopes":null,"year":1981,"specific_heat":null,"n_shells":7,"n_valence":null,"jmol_color":"(0.878, 0.0, 0.22)","covalent_radius":null}}}]}