{"type":"data","nodes":[{"data":null},{"data":{"element":{"name":"Tennessine","appearance":null,"atomic_mass":294,"category":"metalloid","density":7.17,"discoverer":"Joint Institute for Nuclear Research","molar_heat":null,"number":117,"period":7,"phase":"Solid","spectral_img":null,"summary":"Tennessine is a superheavy artificial chemical element with an atomic number of 117 and a symbol of Ts. Also known as eka-astatine or element 117, it is the second-heaviest known element and penultimate element of the 7th period of the periodic table. As of 2016, fifteen tennessine atoms have been observed:six when it was first synthesized in 2010, seven in 2012, and two in 2014.","symbol":"Ts","shells":[2,8,18,32,32,18,7],"electron_configuration":"1s2 2s2 2p6 3s2 3p6 4s2 3d10 4p6 5s2 4d10 5p6 6s2 4f14 5d10 6p6 7s2 5f14 6d10 7p5","electron_configuration_semantic":"*[Rn] 5f14 6d10 7s2 7p5","electron_affinity":165.9,"electronegativity_pauling":null,"ionization_energies":[],"cpk-hex":null,"row":7,"column":17,"n_neutrons":178,"n_protons":117,"n_electrons":117,"radioactive":true,"natural":null,"metal":null,"nonmetal":true,"metalloid":null,"atomic_radius":null,"electronegativity":null,"first_ionization":null,"melting_point":null,"boiling_point":null,"number_of_isotopes":null,"year":2010,"specific_heat":null,"n_shells":7,"n_valence":7,"jmol_color":"","covalent_radius":null}}}]}