{"type":"data","nodes":[{"data":null},{"data":{"element":{"name":"Lutetium","appearance":"silvery white","atomic_mass":174.96681,"category":"lanthanide","density":9.841,"discoverer":"Georges Urbain","molar_heat":26.86,"number":71,"period":6,"phase":"Solid","spectral_img":null,"summary":"Lutetium is a chemical element with symbol Lu and atomic number 71. It is a silvery white metal, which resists corrosion in dry, but not in moist air. It is considered the first element of the 6th-period transition metals and the last element in the lanthanide series, and is traditionally counted among the rare earths.","symbol":"Lu","shells":[2,8,18,32,9,2],"electron_configuration":"1s2 2s2 2p6 3s2 3p6 4s2 3d10 4p6 5s2 4d10 5p6 6s2 4f14 5d1","electron_configuration_semantic":"[Xe] 4f14 5d1 6s2","electron_affinity":33.4,"electronegativity_pauling":1.27,"ionization_energies":[523.5,1340,2022.3,4370,6445],"cpk-hex":"00ab24","row":9,"column":17,"n_neutrons":104,"n_protons":71,"n_electrons":71,"radioactive":null,"natural":true,"metal":true,"nonmetal":null,"metalloid":null,"atomic_radius":2.3,"electronegativity":1.27,"first_ionization":5.4259,"melting_point":1936.15,"boiling_point":3675,"number_of_isotopes":22,"year":1907,"specific_heat":0.154,"n_shells":6,"n_valence":null,"jmol_color":"(0.0, 0.671, 0.141)","covalent_radius":1.87}}}]}