{"type":"data","nodes":[{"data":null},{"data":{"element":{"name":"Nitrogen","appearance":"colorless gas, liquid or solid","atomic_mass":14.007,"category":"diatomic nonmetal","density":1.251,"discoverer":"Daniel Rutherford","molar_heat":null,"number":7,"period":2,"phase":"Gas","spectral_img":"https://wikipedia.org/wiki/File:Nitrogen_Spectra.jpg","summary":"Nitrogen is a chemical element with symbol N and atomic number 7. It is the lightest pnictogen and at room temperature, it is a transparent, odorless diatomic gas. Nitrogen is a common element in the universe, estimated at about seventh in total abundance in the Milky Way and the Solar System.","symbol":"N","shells":[2,5],"electron_configuration":"1s2 2s2 2p3","electron_configuration_semantic":"[He] 2s2 2p3","electron_affinity":-6.8,"electronegativity_pauling":3.04,"ionization_energies":[1402.3,2856,4578.1,7475,9444.9,53266.6,64360],"cpk-hex":"3050f8","row":2,"column":15,"n_neutrons":7,"n_protons":7,"n_electrons":7,"radioactive":null,"natural":true,"metal":null,"nonmetal":true,"metalloid":null,"atomic_radius":0.75,"electronegativity":3.04,"first_ionization":14.5341,"melting_point":63.29,"boiling_point":77.36,"number_of_isotopes":8,"year":1772,"specific_heat":1.04,"n_shells":2,"n_valence":5,"jmol_color":"(0.188, 0.314, 0.973)","covalent_radius":0.71}}}]}