{"type":"data","nodes":[{"data":null},{"data":{"element":{"name":"Praseodymium","appearance":"grayish white","atomic_mass":140.907662,"category":"lanthanide","density":6.77,"discoverer":"Carl Auer von Welsbach","molar_heat":27.2,"number":59,"period":6,"phase":"Solid","spectral_img":null,"summary":"Praseodymium is a chemical element with symbol Pr and atomic number 59. Praseodymium is a soft, silvery, malleable and ductile metal in the lanthanide group. It is valued for its magnetic, electrical, chemical, and optical properties.","symbol":"Pr","shells":[2,8,18,21,8,2],"electron_configuration":"1s2 2s2 2p6 3s2 3p6 4s2 3d10 4p6 5s2 4d10 5p6 6s2 4f3","electron_configuration_semantic":"[Xe] 4f3 6s2","electron_affinity":93,"electronegativity_pauling":1.13,"ionization_energies":[527,1020,2086,3761,5551],"cpk-hex":"d9ffc7","row":9,"column":5,"n_neutrons":82,"n_protons":59,"n_electrons":59,"radioactive":null,"natural":true,"metal":true,"nonmetal":null,"metalloid":null,"atomic_radius":2.7,"electronegativity":1.13,"first_ionization":5.473,"melting_point":1204.15,"boiling_point":3793,"number_of_isotopes":15,"year":1885,"specific_heat":0.193,"n_shells":6,"n_valence":null,"jmol_color":"(0.851, 1.0, 0.78)","covalent_radius":2.03}}}]}