{"type":"data","nodes":[{"data":null},{"data":{"element":{"name":"Selenium","appearance":"black, red, and gray (not pictured) allotropes","atomic_mass":78.9718,"category":"polyatomic nonmetal","density":4.81,"discoverer":"Jöns Berzelius","molar_heat":25.363,"number":34,"period":4,"phase":"Solid","spectral_img":null,"summary":"Selenium is a chemical element with symbol Se and atomic number 34. It is a nonmetal with properties that are intermediate between those of its periodic table column-adjacent chalcogen elements sulfur and tellurium. It rarely occurs in its elemental state in nature, or as pure ore compounds.","symbol":"Se","shells":[2,8,18,6],"electron_configuration":"1s2 2s2 2p6 3s2 3p6 4s2 3d10 4p4","electron_configuration_semantic":"[Ar] 3d10 4s2 4p4","electron_affinity":194.9587,"electronegativity_pauling":2.55,"ionization_energies":[941,2045,2973.7,4144,6590,7880,14990],"cpk-hex":"ffa100","row":4,"column":16,"n_neutrons":45,"n_protons":34,"n_electrons":34,"radioactive":null,"natural":true,"metal":null,"nonmetal":true,"metalloid":null,"atomic_radius":1.2,"electronegativity":2.55,"first_ionization":9.7524,"melting_point":494.15,"boiling_point":958,"number_of_isotopes":20,"year":1817,"specific_heat":0.321,"n_shells":4,"n_valence":6,"jmol_color":"(1.0, 0.631, 0.0)","covalent_radius":1.2}}}]}