{"type":"data","nodes":[{"data":null},{"data":{"element":{"name":"Roentgenium","appearance":null,"atomic_mass":282,"category":"transition metal","density":28.7,"discoverer":"Gesellschaft für Schwerionenforschung","molar_heat":null,"number":111,"period":7,"phase":"Solid","spectral_img":null,"summary":"Roentgenium is a chemical element with symbol Rg and atomic number 111. It is an extremely radioactive synthetic element (an element that can be created in a laboratory but is not found in nature); the most stable known isotope, roentgenium-282, has a half-life of 2.1 minutes. Roentgenium was first created in 1994 by the GSI Helmholtz Centre for Heavy Ion Research near Darmstadt, Germany.","symbol":"Rg","shells":[2,8,18,32,32,17,2],"electron_configuration":"1s2 2s2 2p6 3s2 3p6 4s2 3d10 4p6 5s2 4d10 5p6 6s2 4f14 5d10 6p6 7s2 5f14 6d9","electron_configuration_semantic":"*[Rn] 5f14 6d10 7s1","electron_affinity":151,"electronegativity_pauling":null,"ionization_energies":[],"cpk-hex":null,"row":7,"column":11,"n_neutrons":161,"n_protons":111,"n_electrons":111,"radioactive":true,"natural":null,"metal":true,"nonmetal":null,"metalloid":null,"atomic_radius":null,"electronegativity":null,"first_ionization":null,"melting_point":null,"boiling_point":null,"number_of_isotopes":null,"year":1994,"specific_heat":null,"n_shells":7,"n_valence":null,"jmol_color":"","covalent_radius":null}}}]}