{"type":"data","nodes":[{"data":null},{"data":{"element":{"name":"Moscovium","appearance":null,"atomic_mass":289,"category":"post-transition metal","density":13.5,"discoverer":"Joint Institute for Nuclear Research","molar_heat":null,"number":115,"period":7,"phase":"Solid","spectral_img":null,"summary":"Moscovium is the name of a synthetic superheavy element in the periodic table that has the symbol Mc and has the atomic number 115. It is an extremely radioactive element; its most stable known isotope, moscovium-289, has a half-life of only 220 milliseconds. It is also known as eka-bismuth or simply element 115.","symbol":"Mc","shells":[2,8,18,32,32,18,5],"electron_configuration":"1s2 2s2 2p6 3s2 3p6 4s2 3d10 4p6 5s2 4d10 5p6 6s2 4f14 5d10 6p6 7s2 5f14 6d10 7p3","electron_configuration_semantic":"*[Rn] 5f14 6d10 7s2 7p3","electron_affinity":35.3,"electronegativity_pauling":null,"ionization_energies":[],"cpk-hex":null,"row":7,"column":15,"n_neutrons":173,"n_protons":115,"n_electrons":115,"radioactive":true,"natural":null,"metal":true,"nonmetal":null,"metalloid":null,"atomic_radius":null,"electronegativity":null,"first_ionization":null,"melting_point":null,"boiling_point":null,"number_of_isotopes":null,"year":2010,"specific_heat":null,"n_shells":7,"n_valence":5,"jmol_color":"","covalent_radius":null}}}]}