{"type":"data","nodes":[{"data":null},{"data":{"element":{"name":"Lanthanum","appearance":"silvery white","atomic_mass":138.905477,"category":"lanthanide","density":6.162,"discoverer":"Carl Gustaf Mosander","molar_heat":27.11,"number":57,"period":6,"phase":"Solid","spectral_img":null,"summary":"Lanthanum is a soft, ductile, silvery-white metallic chemical element with symbol La and atomic number 57. It tarnishes rapidly when exposed to air and is soft enough to be cut with a knife. It gave its name to the lanthanide series, a group of 15 similar elements between lanthanum and lutetium in the periodic table:it is also sometimes considered the first element of the 6th-period transition metals.","symbol":"La","shells":[2,8,18,18,9,2],"electron_configuration":"1s2 2s2 2p6 3s2 3p6 4s2 3d10 4p6 5s2 4d10 5p6 6s2 5d1","electron_configuration_semantic":"[Xe] 5d16s2","electron_affinity":53,"electronegativity_pauling":1.1,"ionization_energies":[538.1,1067,1850.3,4819,5940],"cpk-hex":"70d4ff","row":9,"column":3,"n_neutrons":82,"n_protons":57,"n_electrons":57,"radioactive":null,"natural":true,"metal":true,"nonmetal":null,"metalloid":null,"atomic_radius":2.7,"electronegativity":1.1,"first_ionization":5.5769,"melting_point":1193.15,"boiling_point":3737,"number_of_isotopes":19,"year":1839,"specific_heat":0.195,"n_shells":6,"n_valence":null,"jmol_color":"(0.439, 0.831, 1.0)","covalent_radius":2.07}}}]}