{"type":"data","nodes":[{"data":null},{"data":{"element":{"name":"Barium","appearance":null,"atomic_mass":137.3277,"category":"alkaline earth metal","density":3.51,"discoverer":"Carl Wilhelm Scheele","molar_heat":28.07,"number":56,"period":6,"phase":"Solid","spectral_img":null,"summary":"Barium is a chemical element with symbol Ba and atomic number 56. It is the fifth element in Group 2, a soft silvery metallic alkaline earth metal. Because of its high chemical reactivity barium is never found in nature as a free element.","symbol":"Ba","shells":[2,8,18,18,8,2],"electron_configuration":"1s2 2s2 2p6 3s2 3p6 4s2 3d10 4p6 5s2 4d10 5p6 6s2","electron_configuration_semantic":"[Xe] 6s2","electron_affinity":13.954,"electronegativity_pauling":0.89,"ionization_energies":[502.9,965.2,3600],"cpk-hex":"00c900","row":6,"column":2,"n_neutrons":81,"n_protons":56,"n_electrons":56,"radioactive":null,"natural":true,"metal":true,"nonmetal":null,"metalloid":null,"atomic_radius":2.8,"electronegativity":0.89,"first_ionization":5.2117,"melting_point":1002.15,"boiling_point":2170,"number_of_isotopes":25,"year":1808,"specific_heat":0.204,"n_shells":6,"n_valence":2,"jmol_color":"(0.0, 0.788, 0.0)","covalent_radius":2.15}}}]}