{"type":"data","nodes":[{"data":null},{"data":{"element":{"name":"Gadolinium","appearance":"silvery white","atomic_mass":157.253,"category":"lanthanide","density":7.9,"discoverer":"Jean de Marignac","molar_heat":37.03,"number":64,"period":6,"phase":"Solid","spectral_img":null,"summary":"Gadolinium is a chemical element with symbol Gd and atomic number 64. It is a silvery-white, malleable and ductile rare-earth metal. It is found in nature only in combined (salt) form.","symbol":"Gd","shells":[2,8,18,25,9,2],"electron_configuration":"1s2 2s2 2p6 3s2 3p6 4s2 3d10 4p6 5s2 4d10 5p6 6s2 4f7 5d1","electron_configuration_semantic":"[Xe] 4f7 5d1 6s2","electron_affinity":13.22,"electronegativity_pauling":1.2,"ionization_energies":[593.4,1170,1990,4250],"cpk-hex":"45ffc7","row":9,"column":10,"n_neutrons":93,"n_protons":64,"n_electrons":64,"radioactive":null,"natural":true,"metal":true,"nonmetal":null,"metalloid":null,"atomic_radius":2.5,"electronegativity":1.2,"first_ionization":6.1501,"melting_point":1585.15,"boiling_point":3546,"number_of_isotopes":17,"year":1880,"specific_heat":0.236,"n_shells":6,"n_valence":null,"jmol_color":"(0.271, 1.0, 0.78)","covalent_radius":1.96}}}]}