{"type":"data","nodes":[{"data":null},{"data":{"element":{"name":"Boron","appearance":"black-brown","atomic_mass":10.81,"category":"metalloid","density":2.08,"discoverer":"Joseph Gay-Lussac","molar_heat":11.087,"number":5,"period":2,"phase":"Solid","spectral_img":null,"summary":"Boron is a metalloid chemical element with symbol B and atomic number 5. Produced entirely by cosmic ray spallation and supernovae and not by stellar nucleosynthesis, it is a low-abundance element in both the Solar system and the Earth's crust. Boron is concentrated on Earth by the water-solubility of its more common naturally occurring compounds, the borate minerals.","symbol":"B","shells":[2,3],"electron_configuration":"1s2 2s2 2p1","electron_configuration_semantic":"[He] 2s2 2p1","electron_affinity":26.989,"electronegativity_pauling":2.04,"ionization_energies":[800.6,2427.1,3659.7,25025.8,32826.7],"cpk-hex":"ffb5b5","row":2,"column":13,"n_neutrons":6,"n_protons":5,"n_electrons":5,"radioactive":null,"natural":true,"metal":null,"nonmetal":null,"metalloid":true,"atomic_radius":1.2,"electronegativity":2.04,"first_ionization":8.298,"melting_point":2573.15,"boiling_point":4200,"number_of_isotopes":6,"year":1808,"specific_heat":1.026,"n_shells":2,"n_valence":3,"jmol_color":"(1.0, 0.71, 0.71)","covalent_radius":0.84}}}]}