{"type":"data","nodes":[{"data":null},{"data":{"element":{"name":"Samarium","appearance":"silvery white","atomic_mass":150.362,"category":"lanthanide","density":7.52,"discoverer":"Lecoq de Boisbaudran","molar_heat":29.54,"number":62,"period":6,"phase":"Solid","spectral_img":null,"summary":"Samarium is a chemical element with symbol Sm and atomic number 62. It is a moderately hard silvery metal that readily oxidizes in air. Being a typical member of the lanthanide series, samarium usually assumes the oxidation state +3.","symbol":"Sm","shells":[2,8,18,24,8,2],"electron_configuration":"1s2 2s2 2p6 3s2 3p6 4s2 3d10 4p6 5s2 4d10 5p6 6s2 4f6","electron_configuration_semantic":"[Xe] 4f6 6s2","electron_affinity":15.63,"electronegativity_pauling":1.17,"ionization_energies":[544.5,1070,2260,3990],"cpk-hex":"8fffc7","row":9,"column":8,"n_neutrons":88,"n_protons":62,"n_electrons":62,"radioactive":null,"natural":true,"metal":true,"nonmetal":null,"metalloid":null,"atomic_radius":2.6,"electronegativity":1.17,"first_ionization":5.6437,"melting_point":1345.15,"boiling_point":2067,"number_of_isotopes":17,"year":1879,"specific_heat":0.197,"n_shells":6,"n_valence":null,"jmol_color":"(0.561, 1.0, 0.78)","covalent_radius":1.98}}}]}