{"type":"data","nodes":[{"data":null},{"data":{"element":{"name":"Rubidium","appearance":"grey white","atomic_mass":85.46783,"category":"alkali metal","density":1.532,"discoverer":"Robert Bunsen","molar_heat":31.06,"number":37,"period":5,"phase":"Solid","spectral_img":null,"summary":"Rubidium is a chemical element with symbol Rb and atomic number 37. Rubidium is a soft, silvery-white metallic element of the alkali metal group, with an atomic mass of 85.4678. Elemental rubidium is highly reactive, with properties similar to those of other alkali metals, such as very rapid oxidation in air.","symbol":"Rb","shells":[2,8,18,8,1],"electron_configuration":"1s2 2s2 2p6 3s2 3p6 4s2 3d10 4p6 5s1","electron_configuration_semantic":"[Kr] 5s1","electron_affinity":46.884,"electronegativity_pauling":0.82,"ionization_energies":[403,2633,3860,5080,6850,8140,9570,13120,14500,26740],"cpk-hex":"702eb0","row":5,"column":1,"n_neutrons":48,"n_protons":37,"n_electrons":37,"radioactive":null,"natural":true,"metal":true,"nonmetal":null,"metalloid":null,"atomic_radius":3,"electronegativity":0.82,"first_ionization":4.1771,"melting_point":312.79,"boiling_point":961,"number_of_isotopes":20,"year":1861,"specific_heat":0.363,"n_shells":5,"n_valence":1,"jmol_color":"(0.439, 0.18, 0.69)","covalent_radius":2.2}}}]}