{"type":"data","nodes":[{"data":null},{"data":{"element":{"name":"Silicon","appearance":"crystalline, reflective with bluish-tinged faces","atomic_mass":28.085,"category":"metalloid","density":2.329,"discoverer":"Jöns Jacob Berzelius","molar_heat":19.789,"number":14,"period":3,"phase":"Solid","spectral_img":"https://wikipedia.org/wiki/File:Silicon_Spectra.jpg","summary":"Silicon is a chemical element with symbol Si and atomic number 14. It is a tetravalent metalloid, more reactive than germanium, the metalloid directly below it in the table. Controversy about silicon's character dates to its discovery.","symbol":"Si","shells":[2,8,4],"electron_configuration":"1s2 2s2 2p6 3s2 3p2","electron_configuration_semantic":"[Ne] 3s2 3p2","electron_affinity":134.0684,"electronegativity_pauling":1.9,"ionization_energies":[786.5,1577.1,3231.6,4355.5,16091,19805,23780,29287,33878,38726,45962,50502,235196,257923],"cpk-hex":"f0c8a0","row":3,"column":14,"n_neutrons":14,"n_protons":14,"n_electrons":14,"radioactive":null,"natural":true,"metal":null,"nonmetal":null,"metalloid":true,"atomic_radius":1.5,"electronegativity":1.9,"first_ionization":8.1517,"melting_point":1683.15,"boiling_point":3538,"number_of_isotopes":8,"year":1824,"specific_heat":0.705,"n_shells":3,"n_valence":4,"jmol_color":"(0.941, 0.784, 0.627)","covalent_radius":1.11}}}]}