{"type":"data","nodes":[{"data":null},{"data":{"element":{"name":"Meitnerium","appearance":null,"atomic_mass":278,"category":"transition metal","density":37.4,"discoverer":"Gesellschaft für Schwerionenforschung","molar_heat":null,"number":109,"period":7,"phase":"Solid","spectral_img":null,"summary":"Meitnerium is a chemical element with symbol Mt and atomic number 109. It is an extremely radioactive synthetic element (an element not found in nature that can be created in a laboratory). The most stable known isotope, meitnerium-278, has a half-life of 7.6 seconds.","symbol":"Mt","shells":[2,8,18,32,32,15,2],"electron_configuration":"1s2 2s2 2p6 3s2 3p6 4s2 3d10 4p6 5s2 4d10 5p6 6s2 4f14 5d10 6p6 7s2 5f14 6d7","electron_configuration_semantic":"*[Rn] 5f14 6d7 7s2","electron_affinity":null,"electronegativity_pauling":null,"ionization_energies":[],"cpk-hex":"eb0026","row":7,"column":9,"n_neutrons":159,"n_protons":109,"n_electrons":109,"radioactive":true,"natural":null,"metal":true,"nonmetal":null,"metalloid":null,"atomic_radius":null,"electronegativity":null,"first_ionization":null,"melting_point":null,"boiling_point":null,"number_of_isotopes":null,"year":1982,"specific_heat":null,"n_shells":7,"n_valence":null,"jmol_color":"(0.922, 0.0, 0.149)","covalent_radius":null}}}]}