{"type":"data","nodes":[{"data":null},{"data":{"element":{"name":"Tin","appearance":"silvery-white (beta, β) or gray (alpha, α)","atomic_mass":118.7107,"category":"post-transition metal","density":7.365,"discoverer":"before 3500 BC","molar_heat":27.112,"number":50,"period":5,"phase":"Solid","spectral_img":null,"summary":"Tin is a chemical element with the symbol Sn (for Latin:stannum) and atomic number 50. It is a main group metal in group 14 of the periodic table. Tin shows a chemical similarity to both neighboring group-14 elements, germanium and lead, and has two possible oxidation states, +2 and the slightly more stable +4.","symbol":"Sn","shells":[2,8,18,18,4],"electron_configuration":"1s2 2s2 2p6 3s2 3p6 4s2 3d10 4p6 5s2 4d10 5p2","electron_configuration_semantic":"[Kr] 4d10 5s2 5p2","electron_affinity":107.2984,"electronegativity_pauling":1.96,"ionization_energies":[708.6,1411.8,2943,3930.3,7456],"cpk-hex":"668080","row":5,"column":14,"n_neutrons":69,"n_protons":50,"n_electrons":50,"radioactive":null,"natural":true,"metal":true,"nonmetal":null,"metalloid":null,"atomic_radius":1.7,"electronegativity":1.96,"first_ionization":7.3439,"melting_point":505.21,"boiling_point":2875,"number_of_isotopes":28,"year":"~3500 BC","specific_heat":0.228,"n_shells":5,"n_valence":4,"jmol_color":"(0.4, 0.502, 0.502)","covalent_radius":1.39}}}]}