{"type":"data","nodes":[{"data":null},{"data":{"element":{"name":"Beryllium","appearance":"white-gray metallic","atomic_mass":9.01218315,"category":"alkaline earth metal","density":1.85,"discoverer":"Louis Vauquelin","molar_heat":16.443,"number":4,"period":2,"phase":"Solid","spectral_img":null,"summary":"Beryllium is a chemical element with symbol Be and atomic number 4. It is created through stellar nucleosynthesis and is a relatively rare element in the universe. It is a divalent element which occurs naturally only in combination with other elements in minerals.","symbol":"Be","shells":[2,2],"electron_configuration":"1s2 2s2","electron_configuration_semantic":"[He] 2s2","electron_affinity":-48,"electronegativity_pauling":1.57,"ionization_energies":[899.5,1757.1,14848.7,21006.6],"cpk-hex":"c2ff00","row":2,"column":2,"n_neutrons":5,"n_protons":4,"n_electrons":4,"radioactive":null,"natural":true,"metal":true,"nonmetal":null,"metalloid":null,"atomic_radius":1.4,"electronegativity":1.57,"first_ionization":9.3227,"melting_point":1560.15,"boiling_point":2742,"number_of_isotopes":6,"year":1798,"specific_heat":1.825,"n_shells":2,"n_valence":2,"jmol_color":"(0.761, 1.0, 0.0)","covalent_radius":0.96}}}]}