{"type":"data","nodes":[{"data":null},{"data":{"element":{"name":"Dysprosium","appearance":"silvery white","atomic_mass":162.5001,"category":"lanthanide","density":8.54,"discoverer":"Lecoq de Boisbaudran","molar_heat":27.7,"number":66,"period":6,"phase":"Solid","spectral_img":null,"summary":"Dysprosium is a chemical element with the symbol Dy and atomic number 66. It is a rare earth element with a metallic silver luster. Dysprosium is never found in nature as a free element, though it is found in various minerals, such as xenotime.","symbol":"Dy","shells":[2,8,18,28,8,2],"electron_configuration":"1s2 2s2 2p6 3s2 3p6 4s2 3d10 4p6 5s2 4d10 5p6 6s2 4f10","electron_configuration_semantic":"[Xe] 4f10 6s2","electron_affinity":33.96,"electronegativity_pauling":1.22,"ionization_energies":[573,1130,2200,3990],"cpk-hex":"1fffc7","row":9,"column":12,"n_neutrons":97,"n_protons":66,"n_electrons":66,"radioactive":null,"natural":true,"metal":true,"nonmetal":null,"metalloid":null,"atomic_radius":2.5,"electronegativity":1.22,"first_ionization":5.9389,"melting_point":1680.15,"boiling_point":2840,"number_of_isotopes":21,"year":1886,"specific_heat":0.17,"n_shells":6,"n_valence":null,"jmol_color":"(0.122, 1.0, 0.78)","covalent_radius":1.92}}}]}