{"type":"data","nodes":[{"data":null},{"data":{"element":{"name":"Gold","appearance":"metallic yellow","atomic_mass":196.9665695,"category":"transition metal","density":19.3,"discoverer":"Middle East","molar_heat":25.418,"number":79,"period":6,"phase":"Solid","spectral_img":null,"summary":"Gold is a chemical element with symbol Au (from Latin:aurum) and atomic number 79. In its purest form, it is a bright, slightly reddish yellow, dense, soft, malleable and ductile metal. Chemically, gold is a transition metal and a group 11 element.","symbol":"Au","shells":[2,8,18,32,18,1],"electron_configuration":"1s2 2s2 2p6 3s2 3p6 4s2 3d10 4p6 5s2 4d10 5p6 6s1 4f14 5d10","electron_configuration_semantic":"[Xe] 4f14 5d10 6s1","electron_affinity":222.747,"electronegativity_pauling":2.54,"ionization_energies":[890.1,1980],"cpk-hex":"ffd123","row":6,"column":11,"n_neutrons":118,"n_protons":79,"n_electrons":79,"radioactive":null,"natural":true,"metal":true,"nonmetal":null,"metalloid":null,"atomic_radius":1.8,"electronegativity":2.54,"first_ionization":9.2255,"melting_point":1337.73,"boiling_point":3129,"number_of_isotopes":21,"year":"unknown","specific_heat":0.129,"n_shells":6,"n_valence":null,"jmol_color":"(1.0, 0.82, 0.137)","covalent_radius":1.36}}}]}