{"type":"data","nodes":[{"data":null},{"data":{"element":{"name":"Dubnium","appearance":null,"atomic_mass":268,"category":"transition metal","density":29.3,"discoverer":"Joint Institute for Nuclear Research","molar_heat":null,"number":105,"period":7,"phase":"Solid","spectral_img":null,"summary":"Dubnium is a chemical element with symbol Db and atomic number 105. It is named after the town of Dubna in Russia (north of Moscow), where it was first produced. It is a synthetic element (an element that can be created in a laboratory but is not found in nature) and radioactive; the most stable known isotope, dubnium-268, has a half-life of approximately 28 hours.","symbol":"Db","shells":[2,8,18,32,32,11,2],"electron_configuration":"1s2 2s2 2p6 3s2 3p6 4s2 3d10 4p6 5s2 4d10 5p6 6s2 4f14 5d10 6p6 7s2 5f14 6d3","electron_configuration_semantic":"*[Rn] 5f14 6d3 7s2","electron_affinity":null,"electronegativity_pauling":null,"ionization_energies":[],"cpk-hex":"d1004f","row":7,"column":5,"n_neutrons":157,"n_protons":105,"n_electrons":105,"radioactive":true,"natural":null,"metal":true,"nonmetal":null,"metalloid":null,"atomic_radius":null,"electronegativity":null,"first_ionization":null,"melting_point":null,"boiling_point":null,"number_of_isotopes":null,"year":1970,"specific_heat":null,"n_shells":7,"n_valence":null,"jmol_color":"(0.82, 0.0, 0.31)","covalent_radius":null}}}]}