{"type":"data","nodes":[{"data":null},{"data":{"element":{"name":"Ytterbium","appearance":null,"atomic_mass":173.0451,"category":"lanthanide","density":6.9,"discoverer":"Jean de Marignac","molar_heat":26.74,"number":70,"period":6,"phase":"Solid","spectral_img":null,"summary":"Ytterbium is a chemical element with symbol Yb and atomic number 70. It is the fourteenth and penultimate element in the lanthanide series, which is the basis of the relative stability of its +2 oxidation state. However, like the other lanthanides, its most common oxidation state is +3, seen in its oxide, halides and other compounds.","symbol":"Yb","shells":[2,8,18,32,8,2],"electron_configuration":"1s2 2s2 2p6 3s2 3p6 4s2 3d10 4p6 5s2 4d10 5p6 6s2 4f14","electron_configuration_semantic":"[Xe] 4f14 6s2","electron_affinity":-1.93,"electronegativity_pauling":1.1,"ionization_energies":[603.4,1174.8,2417,4203],"cpk-hex":"00bf38","row":9,"column":16,"n_neutrons":103,"n_protons":70,"n_electrons":70,"radioactive":null,"natural":true,"metal":true,"nonmetal":null,"metalloid":null,"atomic_radius":2.4,"electronegativity":1.1,"first_ionization":6.2542,"melting_point":1097.15,"boiling_point":1469,"number_of_isotopes":16,"year":1878,"specific_heat":0.155,"n_shells":6,"n_valence":null,"jmol_color":"(0.0, 0.749, 0.22)","covalent_radius":1.87}}}]}