{"type":"data","nodes":[{"data":null},{"data":{"element":{"name":"Polonium","appearance":"silvery","atomic_mass":209,"category":"post-transition metal","density":9.196,"discoverer":"Pierre Curie","molar_heat":26.4,"number":84,"period":6,"phase":"Solid","spectral_img":null,"summary":"Polonium is a chemical element with symbol Po and atomic number 84, discovered in 1898 by Marie Curie and Pierre Curie. A rare and highly radioactive element with no stable isotopes, polonium is chemically similar to bismuth and tellurium, and it occurs in uranium ores. Applications of polonium are few.","symbol":"Po","shells":[2,8,18,32,18,6],"electron_configuration":"1s2 2s2 2p6 3s2 3p6 4s2 3d10 4p6 5s2 4d10 5p6 6s2 4f14 5d10 6p4","electron_configuration_semantic":"[Xe] 4f14 5d10 6s2 6p4","electron_affinity":136,"electronegativity_pauling":2,"ionization_energies":[812.1],"cpk-hex":"ab5c00","row":6,"column":16,"n_neutrons":126,"n_protons":84,"n_electrons":84,"radioactive":true,"natural":true,"metal":null,"nonmetal":null,"metalloid":true,"atomic_radius":1.5,"electronegativity":2,"first_ionization":8.417,"melting_point":527.15,"boiling_point":1235,"number_of_isotopes":34,"year":1898,"specific_heat":null,"n_shells":6,"n_valence":6,"jmol_color":"(0.671, 0.361, 0.0)","covalent_radius":1.4}}}]}