{"type":"data","nodes":[{"data":null},{"data":{"element":{"name":"Cadmium","appearance":"silvery bluish-gray metallic","atomic_mass":112.4144,"category":"transition metal","density":8.65,"discoverer":"Karl Hermann","molar_heat":26.02,"number":48,"period":5,"phase":"Solid","spectral_img":null,"summary":"Cadmium is a chemical element with symbol Cd and atomic number 48. This soft, bluish-white metal is chemically similar to the two other stable metals in group 12, zinc and mercury. Like zinc, it prefers oxidation state +2 in most of its compounds and like mercury it shows a low melting point compared to transition metals.","symbol":"Cd","shells":[2,8,18,18,2],"electron_configuration":"1s2 2s2 2p6 3s2 3p6 4s2 3d10 4p6 5s2 4d10","electron_configuration_semantic":"[Kr] 4d10 5s2","electron_affinity":-68,"electronegativity_pauling":1.69,"ionization_energies":[867.8,1631.4,3616],"cpk-hex":"ffd98f","row":5,"column":12,"n_neutrons":64,"n_protons":48,"n_electrons":48,"radioactive":null,"natural":true,"metal":true,"nonmetal":null,"metalloid":null,"atomic_radius":1.7,"electronegativity":1.69,"first_ionization":8.9938,"melting_point":594.33,"boiling_point":1040,"number_of_isotopes":22,"year":1817,"specific_heat":0.232,"n_shells":5,"n_valence":null,"jmol_color":"(1.0, 0.851, 0.561)","covalent_radius":1.44}}}]}