{"type":"data","nodes":[{"data":null},{"data":{"element":{"name":"Lithium","appearance":"silvery-white","atomic_mass":6.94,"category":"alkali metal","density":0.534,"discoverer":"Johan August Arfwedson","molar_heat":24.86,"number":3,"period":2,"phase":"Solid","spectral_img":null,"summary":"Lithium (from Greek:λίθος lithos, \"stone\") is a chemical element with the symbol Li and atomic number 3. It is a soft, silver-white metal belonging to the alkali metal group of chemical elements. Under standard conditions it is the lightest metal and the least dense solid element.","symbol":"Li","shells":[2,1],"electron_configuration":"1s2 2s1","electron_configuration_semantic":"[He] 2s1","electron_affinity":59.6326,"electronegativity_pauling":0.98,"ionization_energies":[520.2,7298.1,11815],"cpk-hex":"cc80ff","row":2,"column":1,"n_neutrons":4,"n_protons":3,"n_electrons":3,"radioactive":null,"natural":true,"metal":true,"nonmetal":null,"metalloid":null,"atomic_radius":2.1,"electronegativity":0.98,"first_ionization":5.3917,"melting_point":453.85,"boiling_point":1615,"number_of_isotopes":5,"year":1817,"specific_heat":3.582,"n_shells":2,"n_valence":1,"jmol_color":"(0.8, 0.502, 1.0)","covalent_radius":1.28}}}]}