{"type":"data","nodes":[{"data":null},{"data":{"element":{"name":"Sodium","appearance":"silvery white metallic","atomic_mass":22.989769282,"category":"alkali metal","density":0.968,"discoverer":"Humphry Davy","molar_heat":28.23,"number":11,"period":3,"phase":"Solid","spectral_img":"https://wikipedia.org/wiki/File:Sodium_Spectra.jpg","summary":"Sodium /ˈsoʊdiəm/ is a chemical element with symbol Na (from Ancient Greek Νάτριο) and atomic number 11. It is a soft, silver-white, highly reactive metal. In the Periodic table it is in column 1 (alkali metals), and shares with the other six elements in that column that it has a single electron in its outer shell, which it readily donates, creating a positively charged atom - a cation.","symbol":"Na","shells":[2,8,1],"electron_configuration":"1s2 2s2 2p6 3s1","electron_configuration_semantic":"[Ne] 3s1","electron_affinity":52.867,"electronegativity_pauling":0.93,"ionization_energies":[495.8,4562,6910.3,9543,13354,16613,20117,25496,28932,141362,159076],"cpk-hex":"ab5cf2","row":3,"column":1,"n_neutrons":12,"n_protons":11,"n_electrons":11,"radioactive":null,"natural":true,"metal":true,"nonmetal":null,"metalloid":null,"atomic_radius":2.2,"electronegativity":0.93,"first_ionization":5.1391,"melting_point":371.15,"boiling_point":1156,"number_of_isotopes":7,"year":1807,"specific_heat":1.228,"n_shells":3,"n_valence":1,"jmol_color":"(0.671, 0.361, 0.949)","covalent_radius":1.66}}}]}