{"type":"data","nodes":[{"data":null},{"data":{"element":{"name":"Antimony","appearance":"silvery lustrous gray","atomic_mass":121.7601,"category":"metalloid","density":6.697,"discoverer":"before 3000 BC","molar_heat":25.23,"number":51,"period":5,"phase":"Solid","spectral_img":null,"summary":"Antimony is a chemical element with symbol Sb (from Latin:stibium) and atomic number 51. A lustrous gray metalloid, it is found in nature mainly as the sulfide mineral stibnite (Sb2S3). Antimony compounds have been known since ancient times and were used for cosmetics; metallic antimony was also known, but it was erroneously identified as lead upon its discovery.","symbol":"Sb","shells":[2,8,18,18,5],"electron_configuration":"1s2 2s2 2p6 3s2 3p6 4s2 3d10 4p6 5s2 4d10 5p3","electron_configuration_semantic":"[Kr] 4d10 5s2 5p3","electron_affinity":101.059,"electronegativity_pauling":2.05,"ionization_energies":[834,1594.9,2440,4260,5400,10400],"cpk-hex":"9e63b5","row":5,"column":15,"n_neutrons":71,"n_protons":51,"n_electrons":51,"radioactive":null,"natural":true,"metal":null,"nonmetal":null,"metalloid":true,"atomic_radius":1.5,"electronegativity":2.05,"first_ionization":8.6084,"melting_point":904.05,"boiling_point":1860,"number_of_isotopes":29,"year":"~1600 BC","specific_heat":0.207,"n_shells":5,"n_valence":5,"jmol_color":"(0.62, 0.388, 0.71)","covalent_radius":1.39}}}]}