{"type":"data","nodes":[{"data":null},{"data":{"element":{"name":"Thorium","appearance":"silvery, often with black tarnish","atomic_mass":232.03774,"category":"actinide","density":11.724,"discoverer":"Jöns Jakob Berzelius","molar_heat":26.23,"number":90,"period":7,"phase":"Solid","spectral_img":null,"summary":"Thorium is a chemical element with symbol Th and atomic number 90. A radioactive actinide metal, thorium is one of only two significantly radioactive elements that still occur naturally in large quantities as a primordial element (the other being uranium). It was discovered in 1828 by the Norwegian Reverend and amateur mineralogist Morten Thrane Esmark and identified by the Swedish chemist Jöns Jakob Berzelius, who named it after Thor, the Norse god of thunder.","symbol":"Th","shells":[2,8,18,32,18,10,2],"electron_configuration":"1s2 2s2 2p6 3s2 3p6 4s2 3d10 4p6 5s2 4d10 5p6 6s2 4f14 5d10 6p6 7s2 6d2","electron_configuration_semantic":"[Rn] 6d2 7s2","electron_affinity":112.72,"electronegativity_pauling":1.3,"ionization_energies":[587,1110,1930,2780],"cpk-hex":"00baff","row":10,"column":4,"n_neutrons":142,"n_protons":90,"n_electrons":90,"radioactive":true,"natural":true,"metal":true,"nonmetal":null,"metalloid":null,"atomic_radius":null,"electronegativity":1.3,"first_ionization":6.3067,"melting_point":2028.15,"boiling_point":5061,"number_of_isotopes":12,"year":1828,"specific_heat":0.113,"n_shells":7,"n_valence":null,"jmol_color":"(0.0, 0.729, 1.0)","covalent_radius":2.06}}}]}