{"type":"data","nodes":[{"data":null},{"data":{"element":{"name":"Manganese","appearance":"silvery metallic","atomic_mass":54.9380443,"category":"transition metal","density":7.21,"discoverer":"Torbern Olof Bergman","molar_heat":26.32,"number":25,"period":4,"phase":"Solid","spectral_img":null,"summary":"Manganese is a chemical element with symbol Mn and atomic number 25. It is not found as a free element in nature; it is often found in combination with iron, and in many minerals. Manganese is a metal with important industrial metal alloy uses, particularly in stainless steels.","symbol":"Mn","shells":[2,8,13,2],"electron_configuration":"1s2 2s2 2p6 3s2 3p6 4s2 3d5","electron_configuration_semantic":"[Ar] 3d5 4s2","electron_affinity":-50,"electronegativity_pauling":1.55,"ionization_energies":[717.3,1509,3248,4940,6990,9220,11500,18770,21400,23960,27590,30330,33150,38880,41987,109480,118100,127100,138600,148500,158600,172500,181380,785450,827067],"cpk-hex":"9c7ac7","row":4,"column":7,"n_neutrons":30,"n_protons":25,"n_electrons":25,"radioactive":null,"natural":true,"metal":true,"nonmetal":null,"metalloid":null,"atomic_radius":1.8,"electronegativity":1.55,"first_ionization":7.434,"melting_point":1519.15,"boiling_point":2334,"number_of_isotopes":11,"year":1774,"specific_heat":0.479,"n_shells":4,"n_valence":null,"jmol_color":"(0.612, 0.478, 0.78)","covalent_radius":1.39}}}]}