{"type":"data","nodes":[{"data":null},{"data":{"element":{"name":"Francium","appearance":null,"atomic_mass":223,"category":"alkali metal","density":1.87,"discoverer":"Marguerite Perey","molar_heat":null,"number":87,"period":7,"phase":"Solid","spectral_img":null,"summary":"Francium is a chemical element with symbol Fr and atomic number 87. It used to be known as eka-caesium and actinium K. It is the second-least electronegative element, behind only caesium. Francium is a highly radioactive metal that decays into astatine, radium, and radon.","symbol":"Fr","shells":[2,8,18,32,18,8,1],"electron_configuration":"1s2 2s2 2p6 3s2 3p6 4s2 3d10 4p6 5s2 4d10 5p6 6s2 4f14 5d10 6p6 7s1","electron_configuration_semantic":"[Rn] 7s1","electron_affinity":46.89,"electronegativity_pauling":0.79,"ionization_energies":[380],"cpk-hex":"420066","row":7,"column":1,"n_neutrons":136,"n_protons":87,"n_electrons":87,"radioactive":true,"natural":true,"metal":true,"nonmetal":null,"metalloid":null,"atomic_radius":null,"electronegativity":0.7,"first_ionization":4.0727,"melting_point":300.15,"boiling_point":950,"number_of_isotopes":21,"year":1939,"specific_heat":null,"n_shells":7,"n_valence":1,"jmol_color":"(0.259, 0.0, 0.4)","covalent_radius":2.6}}}]}