{"type":"data","nodes":[{"data":null},{"data":{"element":{"name":"Osmium","appearance":"silvery, blue cast","atomic_mass":190.233,"category":"transition metal","density":22.59,"discoverer":"Smithson Tennant","molar_heat":24.7,"number":76,"period":6,"phase":"Solid","spectral_img":null,"summary":"Osmium (from Greek osme (ὀσμή) meaning \"smell\") is a chemical element with symbol Os and atomic number 76. It is a hard, brittle, bluish-white transition metal in the platinum group that is found as a trace element in alloys, mostly in platinum ores. Osmium is the densest naturally occurring element, with a density of 22.59 g/cm3.","symbol":"Os","shells":[2,8,18,32,14,2],"electron_configuration":"1s2 2s2 2p6 3s2 3p6 4s2 3d10 4p6 5s2 4d10 5p6 6s2 4f14 5d6","electron_configuration_semantic":"[Xe] 4f14 5d6 6s2","electron_affinity":103.99,"electronegativity_pauling":2.2,"ionization_energies":[840,1600],"cpk-hex":"266696","row":6,"column":8,"n_neutrons":114,"n_protons":76,"n_electrons":76,"radioactive":null,"natural":true,"metal":true,"nonmetal":null,"metalloid":null,"atomic_radius":1.9,"electronegativity":2.2,"first_ionization":8.4382,"melting_point":3300.15,"boiling_point":5285,"number_of_isotopes":19,"year":1803,"specific_heat":0.13,"n_shells":6,"n_valence":null,"jmol_color":"(0.149, 0.4, 0.588)","covalent_radius":1.44}}}]}