{"type":"data","nodes":[{"data":null},{"data":{"element":{"name":"Ruthenium","appearance":"silvery white metallic","atomic_mass":101.072,"category":"transition metal","density":12.45,"discoverer":"Karl Ernst Claus","molar_heat":24.06,"number":44,"period":5,"phase":"Solid","spectral_img":null,"summary":"Ruthenium is a chemical element with symbol Ru and atomic number 44. It is a rare transition metal belonging to the platinum group of the periodic table. Like the other metals of the platinum group, ruthenium is inert to most other chemicals.","symbol":"Ru","shells":[2,8,18,15,1],"electron_configuration":"1s2 2s2 2p6 3s2 3p6 4s2 3d10 4p6 5s1 4d7","electron_configuration_semantic":"[Kr] 4d7 5s1","electron_affinity":100.96,"electronegativity_pauling":2.2,"ionization_energies":[710.2,1620,2747],"cpk-hex":"248f8f","row":5,"column":8,"n_neutrons":57,"n_protons":44,"n_electrons":44,"radioactive":null,"natural":true,"metal":true,"nonmetal":null,"metalloid":null,"atomic_radius":1.9,"electronegativity":2.2,"first_ionization":7.3605,"melting_point":2523.15,"boiling_point":4423,"number_of_isotopes":16,"year":1844,"specific_heat":0.238,"n_shells":5,"n_valence":null,"jmol_color":"(0.141, 0.561, 0.561)","covalent_radius":1.46}}}]}