{"type":"data","nodes":[{"data":null},{"data":{"element":{"name":"Tantalum","appearance":"gray blue","atomic_mass":180.947882,"category":"transition metal","density":16.69,"discoverer":"Anders Gustaf Ekeberg","molar_heat":25.36,"number":73,"period":6,"phase":"Solid","spectral_img":"https://wikipedia.org/wiki/File:Tantalum_spectrum_visible.png","summary":"Tantalum is a chemical element with symbol Ta and atomic number 73. Previously known as tantalium, its name comes from Tantalus, an antihero from Greek mythology. Tantalum is a rare, hard, blue-gray, lustrous transition metal that is highly corrosion-resistant.","symbol":"Ta","shells":[2,8,18,32,11,2],"electron_configuration":"1s2 2s2 2p6 3s2 3p6 4s2 3d10 4p6 5s2 4d10 5p6 6s2 4f14 5d3","electron_configuration_semantic":"[Xe] 4f14 5d3 6s2","electron_affinity":31,"electronegativity_pauling":1.5,"ionization_energies":[761,1500],"cpk-hex":"4da6ff","row":6,"column":5,"n_neutrons":108,"n_protons":73,"n_electrons":73,"radioactive":null,"natural":true,"metal":true,"nonmetal":null,"metalloid":null,"atomic_radius":2.1,"electronegativity":1.5,"first_ionization":7.5496,"melting_point":3269.15,"boiling_point":5731,"number_of_isotopes":19,"year":1801,"specific_heat":0.14,"n_shells":6,"n_valence":null,"jmol_color":"(0.302, 0.651, 1.0)","covalent_radius":1.7}}}]}