{"type":"data","nodes":[{"data":null},{"data":{"element":{"name":"Rhodium","appearance":"silvery white metallic","atomic_mass":102.905502,"category":"transition metal","density":12.41,"discoverer":"William Wollaston","molar_heat":24.98,"number":45,"period":5,"phase":"Solid","spectral_img":null,"summary":"Rhodium is a chemical element with symbol Rh and atomic number 45. It is a rare, silvery-white, hard, and chemically inert transition metal. It is a member of the platinum group.","symbol":"Rh","shells":[2,8,18,16,1],"electron_configuration":"1s2 2s2 2p6 3s2 3p6 4s2 3d10 4p6 5s1 4d8","electron_configuration_semantic":"[Kr] 4d8 5s1","electron_affinity":110.27,"electronegativity_pauling":2.28,"ionization_energies":[719.7,1740,2997],"cpk-hex":"0a7d8c","row":5,"column":9,"n_neutrons":58,"n_protons":45,"n_electrons":45,"radioactive":null,"natural":true,"metal":true,"nonmetal":null,"metalloid":null,"atomic_radius":1.8,"electronegativity":2.28,"first_ionization":7.4589,"melting_point":2239.15,"boiling_point":3968,"number_of_isotopes":20,"year":1803,"specific_heat":0.243,"n_shells":5,"n_valence":null,"jmol_color":"(0.039, 0.49, 0.549)","covalent_radius":1.42}}}]}