{"type":"data","nodes":[{"data":null},{"data":{"element":{"name":"Bismuth","appearance":"lustrous silver","atomic_mass":208.980401,"category":"post-transition metal","density":9.78,"discoverer":"Claude François Geoffroy","molar_heat":25.52,"number":83,"period":6,"phase":"Solid","spectral_img":null,"summary":"Bismuth is a chemical element with symbol Bi and atomic number 83. Bismuth, a pentavalent post-transition metal, chemically resembles arsenic and antimony. Elemental bismuth may occur naturally, although its sulfide and oxide form important commercial ores.","symbol":"Bi","shells":[2,8,18,32,18,5],"electron_configuration":"1s2 2s2 2p6 3s2 3p6 4s2 3d10 4p6 5s2 4d10 5p6 6s2 4f14 5d10 6p3","electron_configuration_semantic":"[Xe] 4f14 5d10 6s2 6p3","electron_affinity":90.924,"electronegativity_pauling":2.02,"ionization_energies":[703,1610,2466,4370,5400,8520],"cpk-hex":"9e4fb5","row":6,"column":15,"n_neutrons":126,"n_protons":83,"n_electrons":83,"radioactive":null,"natural":true,"metal":true,"nonmetal":null,"metalloid":null,"atomic_radius":1.6,"electronegativity":2.02,"first_ionization":7.2856,"melting_point":544.67,"boiling_point":1837,"number_of_isotopes":19,"year":1753,"specific_heat":0.122,"n_shells":6,"n_valence":5,"jmol_color":"(0.62, 0.31, 0.71)","covalent_radius":1.48}}}]}