{"type":"data","nodes":[{"data":null},{"data":{"element":{"name":"Titanium","appearance":"silvery grey-white metallic","atomic_mass":47.8671,"category":"transition metal","density":4.506,"discoverer":"William Gregor","molar_heat":25.06,"number":22,"period":4,"phase":"Solid","spectral_img":null,"summary":"Titanium is a chemical element with symbol Ti and atomic number 22. It is a lustrous transition metal with a silver color, low density and high strength. It is highly resistant to corrosion in sea water, aqua regia and chlorine.","symbol":"Ti","shells":[2,8,10,2],"electron_configuration":"1s2 2s2 2p6 3s2 3p6 4s2 3d2","electron_configuration_semantic":"[Ar] 3d2 4s2","electron_affinity":7.289,"electronegativity_pauling":1.54,"ionization_energies":[658.8,1309.8,2652.5,4174.6,9581,11533,13590,16440,18530,20833,25575,28125,76015,83280,90880,100700,109100,117800,129900,137530,602930,639294],"cpk-hex":"bfc2c7","row":4,"column":4,"n_neutrons":26,"n_protons":22,"n_electrons":22,"radioactive":null,"natural":true,"metal":true,"nonmetal":null,"metalloid":null,"atomic_radius":2,"electronegativity":1.54,"first_ionization":6.8281,"melting_point":1933.15,"boiling_point":3560,"number_of_isotopes":9,"year":1791,"specific_heat":0.523,"n_shells":4,"n_valence":null,"jmol_color":"(0.749, 0.761, 0.78)","covalent_radius":1.6}}}]}