{"type":"data","nodes":[{"data":null},{"data":{"element":{"name":"Astatine","appearance":"probably metallic","atomic_mass":210,"category":"metalloid","density":6.35,"discoverer":"Dale R. Corson","molar_heat":null,"number":85,"period":6,"phase":"Solid","spectral_img":null,"summary":"Astatine is a very rare radioactive chemical element with the chemical symbol At and atomic number 85. It occurs on Earth as the decay product of various heavier elements. All its isotopes are short-lived; the most stable is astatine-210, with a half-life of 8.1 hours.","symbol":"At","shells":[2,8,18,32,18,7],"electron_configuration":"1s2 2s2 2p6 3s2 3p6 4s2 3d10 4p6 5s2 4d10 5p6 6s2 4f14 5d10 6p5","electron_configuration_semantic":"[Xe] 4f14 5d10 6s2 6p5","electron_affinity":233,"electronegativity_pauling":2.2,"ionization_energies":[899.003],"cpk-hex":"754f45","row":6,"column":17,"n_neutrons":125,"n_protons":85,"n_electrons":85,"radioactive":true,"natural":true,"metal":null,"nonmetal":true,"metalloid":null,"atomic_radius":1.4,"electronegativity":2.2,"first_ionization":9.3,"melting_point":575.15,"boiling_point":610,"number_of_isotopes":21,"year":1940,"specific_heat":null,"n_shells":6,"n_valence":7,"jmol_color":"(0.459, 0.31, 0.271)","covalent_radius":1.5}}}]}