{"type":"data","nodes":[{"data":null},{"data":{"element":{"name":"Palladium","appearance":"silvery white","atomic_mass":106.421,"category":"transition metal","density":12.023,"discoverer":"William Wollaston","molar_heat":25.98,"number":46,"period":5,"phase":"Solid","spectral_img":null,"summary":"Palladium is a chemical element with symbol Pd and atomic number 46. It is a rare and lustrous silvery-white metal discovered in 1803 by William Hyde Wollaston. He named it after the asteroid Pallas, which was itself named after the epithet of the Greek goddess Athena, acquired by her when she slew Pallas.","symbol":"Pd","shells":[2,8,18,18],"electron_configuration":"1s2 2s2 2p6 3s2 3p6 4s2 3d10 4p6 4d10","electron_configuration_semantic":"[Kr] 4d10","electron_affinity":54.24,"electronegativity_pauling":2.2,"ionization_energies":[804.4,1870,3177],"cpk-hex":"006985","row":5,"column":10,"n_neutrons":60,"n_protons":46,"n_electrons":46,"radioactive":null,"natural":true,"metal":true,"nonmetal":null,"metalloid":null,"atomic_radius":1.8,"electronegativity":2.2,"first_ionization":8.3369,"melting_point":1825.15,"boiling_point":3236,"number_of_isotopes":21,"year":1803,"specific_heat":0.244,"n_shells":5,"n_valence":null,"jmol_color":"(0.0, 0.412, 0.522)","covalent_radius":1.39}}}]}