{"type":"data","nodes":[{"data":null},{"data":{"element":{"name":"Bromine","appearance":null,"atomic_mass":79.904,"category":"diatomic nonmetal","density":3.1028,"discoverer":"Antoine Balard","molar_heat":null,"number":35,"period":4,"phase":"Liquid","spectral_img":null,"summary":"Bromine (from Ancient Greek:βρῶμος, brómos, meaning \"stench\") is a chemical element with symbol Br, and atomic number 35. It is a halogen. The element was isolated independently by two chemists, Carl Jacob Löwig and Antoine Jerome Balard, in 1825–1826.","symbol":"Br","shells":[2,8,18,7],"electron_configuration":"1s2 2s2 2p6 3s2 3p6 4s2 3d10 4p5","electron_configuration_semantic":"[Ar] 3d10 4s2 4p5","electron_affinity":324.537,"electronegativity_pauling":2.96,"ionization_energies":[1139.9,2103,3470,4560,5760,8550,9940,18600],"cpk-hex":"a62929","row":4,"column":17,"n_neutrons":45,"n_protons":35,"n_electrons":35,"radioactive":null,"natural":true,"metal":null,"nonmetal":true,"metalloid":null,"atomic_radius":1.1,"electronegativity":2.96,"first_ionization":11.8138,"melting_point":266.05,"boiling_point":332,"number_of_isotopes":19,"year":1826,"specific_heat":0.474,"n_shells":4,"n_valence":7,"jmol_color":"(0.651, 0.161, 0.161)","covalent_radius":1.2}}}]}