{"type":"data","nodes":[{"data":null},{"data":{"element":{"name":"Aluminium","appearance":"silvery gray metallic","atomic_mass":26.98153857,"category":"post-transition metal","density":2.7,"discoverer":"Hans Christian Ørsted","molar_heat":24.2,"number":13,"period":3,"phase":"Solid","spectral_img":null,"summary":"Aluminium (or aluminum; see different endings) is a chemical element in the boron group with symbol Al and atomic number 13. It is a silvery-white, soft, nonmagnetic, ductile metal. Aluminium is the third most abundant element (after oxygen and silicon), and the most abundant metal, in the Earth's crust.","symbol":"Al","shells":[2,8,3],"electron_configuration":"1s2 2s2 2p6 3s2 3p1","electron_configuration_semantic":"[Ne] 3s2 3p1","electron_affinity":41.762,"electronegativity_pauling":1.61,"ionization_energies":[577.5,1816.7,2744.8,11577,14842,18379,23326,27465,31853,38473,42647,201266,222316],"cpk-hex":"bfa6a6","row":3,"column":13,"n_neutrons":14,"n_protons":13,"n_electrons":13,"radioactive":null,"natural":true,"metal":true,"nonmetal":null,"metalloid":null,"atomic_radius":1.8,"electronegativity":1.61,"first_ionization":5.9858,"melting_point":933.4,"boiling_point":2792,"number_of_isotopes":8,"year":1827,"specific_heat":0.897,"n_shells":3,"n_valence":3,"jmol_color":"(0.749, 0.651, 0.651)","covalent_radius":1.21}}}]}