{"type":"data","nodes":[{"data":null},{"data":{"element":{"name":"Fluorine","appearance":null,"atomic_mass":18.9984031636,"category":"diatomic nonmetal","density":1.696,"discoverer":"André-Marie Ampère","molar_heat":null,"number":9,"period":2,"phase":"Gas","spectral_img":null,"summary":"Fluorine is a chemical element with symbol F and atomic number 9. It is the lightest halogen and exists as a highly toxic pale yellow diatomic gas at standard conditions. As the most electronegative element, it is extremely reactive:almost all other elements, including some noble gases, form compounds with fluorine.","symbol":"F","shells":[2,7],"electron_configuration":"1s2 2s2 2p5","electron_configuration_semantic":"[He] 2s2 2p5","electron_affinity":328.1649,"electronegativity_pauling":3.98,"ionization_energies":[1681,3374.2,6050.4,8407.7,11022.7,15164.1,17868,92038.1,106434.3],"cpk-hex":"90e050","row":2,"column":17,"n_neutrons":10,"n_protons":9,"n_electrons":9,"radioactive":null,"natural":true,"metal":null,"nonmetal":true,"metalloid":null,"atomic_radius":0.57,"electronegativity":3.98,"first_ionization":17.4228,"melting_point":53.63,"boiling_point":85.03,"number_of_isotopes":6,"year":1886,"specific_heat":0.824,"n_shells":2,"n_valence":7,"jmol_color":"(0.565, 0.878, 0.314)","covalent_radius":0.57}}}]}