{"type":"data","nodes":[{"data":null},{"data":{"element":{"name":"Curium","appearance":"silvery metallic, glows purple in the dark","atomic_mass":247,"category":"actinide","density":13.51,"discoverer":"Glenn Seaborg","molar_heat":null,"number":96,"period":7,"phase":"Solid","spectral_img":null,"summary":"Curium is a transuranic radioactive chemical element with symbol Cm and atomic number 96. This element of the actinide series was named after Marie and Pierre Curie – both were known for their research on radioactivity. Curium was first intentionally produced and identified in July 1944 by the group of Glenn T. Seaborg at the University of California, Berkeley.","symbol":"Cm","shells":[2,8,18,32,25,9,2],"electron_configuration":"1s2 2s2 2p6 3s2 3p6 4s2 3d10 4p6 5s2 4d10 5p6 6s2 4f14 5d10 6p6 7s2 5f7 6d1","electron_configuration_semantic":"[Rn] 5f7 6d1 7s2","electron_affinity":27.17,"electronegativity_pauling":1.28,"ionization_energies":[581],"cpk-hex":"785ce3","row":10,"column":10,"n_neutrons":151,"n_protons":96,"n_electrons":96,"radioactive":true,"natural":null,"metal":true,"nonmetal":null,"metalloid":null,"atomic_radius":null,"electronegativity":1.3,"first_ionization":5.9915,"melting_point":1340.15,"boiling_point":3383,"number_of_isotopes":133,"year":1944,"specific_heat":null,"n_shells":7,"n_valence":null,"jmol_color":"(0.471, 0.361, 0.89)","covalent_radius":1.69}}}]}