{"type":"data","nodes":[{"data":null},{"data":{"element":{"name":"Hassium","appearance":null,"atomic_mass":269,"category":"transition metal","density":40.7,"discoverer":"Gesellschaft für Schwerionenforschung","molar_heat":null,"number":108,"period":7,"phase":"Solid","spectral_img":null,"summary":"Hassium is a chemical element with symbol Hs and atomic number 108, named after the German state of Hesse. It is a synthetic element (an element that can be created in a laboratory but is not found in nature) and radioactive; the most stable known isotope, 269Hs, has a half-life of approximately 9.7 seconds, although an unconfirmed metastable state, 277mHs, may have a longer half-life of about 130 seconds. More than 100 atoms of hassium have been synthesized to date.","symbol":"Hs","shells":[2,8,18,32,32,14,2],"electron_configuration":"1s2 2s2 2p6 3s2 3p6 4s2 3d10 4p6 5s2 4d10 5p6 6s2 4f14 5d10 6p6 7s2 5f14 6d6","electron_configuration_semantic":"*[Rn] 5f14 6d6 7s2","electron_affinity":null,"electronegativity_pauling":null,"ionization_energies":[],"cpk-hex":"e6002e","row":7,"column":8,"n_neutrons":159,"n_protons":108,"n_electrons":108,"radioactive":true,"natural":null,"metal":true,"nonmetal":null,"metalloid":null,"atomic_radius":null,"electronegativity":null,"first_ionization":null,"melting_point":null,"boiling_point":null,"number_of_isotopes":null,"year":1983,"specific_heat":null,"n_shells":7,"n_valence":null,"jmol_color":"(0.902, 0.0, 0.18)","covalent_radius":null}}}]}