{"type":"data","nodes":[{"data":null},{"data":{"element":{"name":"Copper","appearance":"red-orange metallic luster","atomic_mass":63.5463,"category":"transition metal","density":8.96,"discoverer":"Middle East","molar_heat":24.44,"number":29,"period":4,"phase":"Solid","spectral_img":null,"summary":"Copper is a chemical element with symbol Cu (from Latin:cuprum) and atomic number 29. It is a soft, malleable and ductile metal with very high thermal and electrical conductivity. A freshly exposed surface of pure copper has a reddish-orange color.","symbol":"Cu","shells":[2,8,18,1],"electron_configuration":"1s2 2s2 2p6 3s2 3p6 4s1 3d10","electron_configuration_semantic":"[Ar] 3d10 4s1","electron_affinity":119.235,"electronegativity_pauling":1.9,"ionization_energies":[745.5,1957.9,3555,5536,7700,9900,13400,16000,19200,22400,25600,35600,38700,42000,46700,50200,53700,61100,64702,163700,174100,184900,198800,210500,222700,239100,249660,1067358,1116105],"cpk-hex":"c88033","row":4,"column":11,"n_neutrons":35,"n_protons":29,"n_electrons":29,"radioactive":null,"natural":true,"metal":true,"nonmetal":null,"metalloid":null,"atomic_radius":1.6,"electronegativity":1.9,"first_ionization":7.7264,"melting_point":1357.75,"boiling_point":2835,"number_of_isotopes":11,"year":"~9000 BC","specific_heat":0.385,"n_shells":4,"n_valence":null,"jmol_color":"(0.784, 0.502, 0.2)","covalent_radius":1.32}}}]}