{"type":"data","nodes":[{"data":null},{"data":{"element":{"name":"Einsteinium","appearance":"silver-colored","atomic_mass":252,"category":"actinide","density":8.84,"discoverer":"Lawrence Berkeley Laboratory","molar_heat":null,"number":99,"period":7,"phase":"Solid","spectral_img":null,"summary":"Einsteinium is a synthetic element with symbol Es and atomic number 99. It is the seventh transuranic element, and an actinide. Einsteinium was discovered as a component of the debris of the first hydrogen bomb explosion in 1952, and named after Albert Einstein.","symbol":"Es","shells":[2,8,18,32,29,8,2],"electron_configuration":"1s2 2s2 2p6 3s2 3p6 4s2 3d10 4p6 5s2 4d10 5p6 6s2 4f14 5d10 6p6 7s2 5f11","electron_configuration_semantic":"[Rn] 5f11 7s2","electron_affinity":-28.6,"electronegativity_pauling":1.3,"ionization_energies":[619],"cpk-hex":"b31fd4","row":10,"column":13,"n_neutrons":153,"n_protons":99,"n_electrons":99,"radioactive":true,"natural":null,"metal":true,"nonmetal":null,"metalloid":null,"atomic_radius":null,"electronegativity":1.3,"first_ionization":6.42,"melting_point":1133.15,"boiling_point":null,"number_of_isotopes":123,"year":1952,"specific_heat":null,"n_shells":7,"n_valence":null,"jmol_color":"(0.702, 0.122, 0.831)","covalent_radius":null}}}]}