{"type":"data","nodes":[{"data":null},{"data":{"element":{"name":"Protactinium","appearance":"bright, silvery metallic luster","atomic_mass":231.035882,"category":"actinide","density":15.37,"discoverer":"William Crookes","molar_heat":null,"number":91,"period":7,"phase":"Solid","spectral_img":null,"summary":"Protactinium is a chemical element with symbol Pa and atomic number 91. It is a dense, silvery-gray metal which readily reacts with oxygen, water vapor and inorganic acids. It forms various chemical compounds where protactinium is usually present in the oxidation state +5, but can also assume +4 and even +2 or +3 states.","symbol":"Pa","shells":[2,8,18,32,20,9,2],"electron_configuration":"1s2 2s2 2p6 3s2 3p6 4s2 3d10 4p6 5s2 4d10 5p6 6s2 4f14 5d10 6p6 7s2 5f2 6d1","electron_configuration_semantic":"[Rn] 5f2 6d1 7s2","electron_affinity":53.03,"electronegativity_pauling":1.5,"ionization_energies":[568],"cpk-hex":"00a1ff","row":10,"column":5,"n_neutrons":140,"n_protons":91,"n_electrons":91,"radioactive":true,"natural":true,"metal":true,"nonmetal":null,"metalloid":null,"atomic_radius":null,"electronegativity":1.5,"first_ionization":5.89,"melting_point":1873.15,"boiling_point":4300,"number_of_isotopes":14,"year":1917,"specific_heat":null,"n_shells":7,"n_valence":null,"jmol_color":"(0.0, 0.631, 1.0)","covalent_radius":2}}}]}