{"type":"data","nodes":[{"data":null},{"data":{"element":{"name":"Darmstadtium","appearance":null,"atomic_mass":281,"category":"transition metal","density":34.8,"discoverer":"Gesellschaft für Schwerionenforschung","molar_heat":null,"number":110,"period":7,"phase":"Solid","spectral_img":null,"summary":"Darmstadtium is a chemical element with symbol Ds and atomic number 110. It is an extremely radioactive synthetic element. The most stable known isotope, darmstadtium-281, has a half-life of approximately 10 seconds.","symbol":"Ds","shells":[2,8,18,32,32,16,2],"electron_configuration":"1s2 2s2 2p6 3s2 3p6 4s2 3d10 4p6 5s2 4d10 5p6 6s2 4f14 5d10 6p6 7s2 5f14 6d8","electron_configuration_semantic":"*[Rn] 5f14 6d9 7s1","electron_affinity":null,"electronegativity_pauling":null,"ionization_energies":[],"cpk-hex":null,"row":7,"column":10,"n_neutrons":161,"n_protons":110,"n_electrons":110,"radioactive":true,"natural":null,"metal":true,"nonmetal":null,"metalloid":null,"atomic_radius":null,"electronegativity":null,"first_ionization":null,"melting_point":null,"boiling_point":null,"number_of_isotopes":null,"year":1994,"specific_heat":null,"n_shells":7,"n_valence":null,"jmol_color":"","covalent_radius":null}}}]}