{"type":"data","nodes":[{"data":null},{"data":{"element":{"name":"Arsenic","appearance":"metallic grey","atomic_mass":74.9215956,"category":"metalloid","density":5.727,"discoverer":"Bronze Age","molar_heat":24.64,"number":33,"period":4,"phase":"Solid","spectral_img":null,"summary":"Arsenic is a chemical element with symbol As and atomic number 33. Arsenic occurs in many minerals, usually in conjunction with sulfur and metals, and also as a pure elemental crystal. Arsenic is a metalloid.","symbol":"As","shells":[2,8,18,5],"electron_configuration":"1s2 2s2 2p6 3s2 3p6 4s2 3d10 4p3","electron_configuration_semantic":"[Ar] 3d10 4s2 4p3","electron_affinity":77.65,"electronegativity_pauling":2.18,"ionization_energies":[947,1798,2735,4837,6043,12310],"cpk-hex":"bd80e3","row":4,"column":15,"n_neutrons":42,"n_protons":33,"n_electrons":33,"radioactive":null,"natural":true,"metal":null,"nonmetal":null,"metalloid":true,"atomic_radius":1.3,"electronegativity":2.18,"first_ionization":9.7886,"melting_point":1090.15,"boiling_point":887,"number_of_isotopes":14,"year":1250,"specific_heat":0.329,"n_shells":4,"n_valence":5,"jmol_color":"(0.741, 0.502, 0.89)","covalent_radius":1.19}}}]}