{"type":"data","nodes":[{"data":null},{"data":{"element":{"name":"Zinc","appearance":"silver-gray","atomic_mass":65.382,"category":"transition metal","density":7.14,"discoverer":"India","molar_heat":25.47,"number":30,"period":4,"phase":"Solid","spectral_img":null,"summary":"Zinc, in commerce also spelter, is a chemical element with symbol Zn and atomic number 30. It is the first element of group 12 of the periodic table. In some respects zinc is chemically similar to magnesium:its ion is of similar size and its only common oxidation state is +2.","symbol":"Zn","shells":[2,8,18,2],"electron_configuration":"1s2 2s2 2p6 3s2 3p6 4s2 3d10","electron_configuration_semantic":"[Ar] 3d10 4s2","electron_affinity":-58,"electronegativity_pauling":1.65,"ionization_energies":[906.4,1733.3,3833,5731,7970,10400,12900,16800,19600,23000,26400,29990,40490,43800,47300,52300,55900,59700,67300,71200,179100],"cpk-hex":"7d80b0","row":4,"column":12,"n_neutrons":35,"n_protons":30,"n_electrons":30,"radioactive":null,"natural":true,"metal":true,"nonmetal":null,"metalloid":null,"atomic_radius":1.5,"electronegativity":1.65,"first_ionization":9.3942,"melting_point":692.88,"boiling_point":1180,"number_of_isotopes":15,"year":1668,"specific_heat":0.388,"n_shells":4,"n_valence":null,"jmol_color":"(0.49, 0.502, 0.69)","covalent_radius":1.22}}}]}