{"type":"data","nodes":[{"data":null},{"data":{"element":{"name":"Yttrium","appearance":"silvery white","atomic_mass":88.905842,"category":"transition metal","density":4.472,"discoverer":"Johan Gadolin","molar_heat":26.53,"number":39,"period":5,"phase":"Solid","spectral_img":null,"summary":"Yttrium is a chemical element with symbol Y and atomic number 39. It is a silvery-metallic transition metal chemically similar to the lanthanides and it has often been classified as a \"rare earth element\". Yttrium is almost always found combined with the lanthanides in rare earth minerals and is never found in nature as a free element.","symbol":"Y","shells":[2,8,18,9,2],"electron_configuration":"1s2 2s2 2p6 3s2 3p6 4s2 3d10 4p6 5s2 4d1","electron_configuration_semantic":"[Kr] 4d1 5s2","electron_affinity":29.6,"electronegativity_pauling":1.22,"ionization_energies":[600,1180,1980,5847,7430,8970,11190,12450,14110,18400,19900,36090],"cpk-hex":"94ffff","row":5,"column":3,"n_neutrons":50,"n_protons":39,"n_electrons":39,"radioactive":null,"natural":true,"metal":true,"nonmetal":null,"metalloid":null,"atomic_radius":2.3,"electronegativity":1.22,"first_ionization":6.2173,"melting_point":1799.15,"boiling_point":3609,"number_of_isotopes":21,"year":1794,"specific_heat":0.298,"n_shells":5,"n_valence":null,"jmol_color":"(0.58, 1.0, 1.0)","covalent_radius":1.9}}}]}