{"type":"data","nodes":[{"data":null},{"data":{"element":{"name":"Krypton","appearance":"colorless gas, exhibiting a whitish glow in a high electric field","atomic_mass":83.7982,"category":"noble gas","density":3.749,"discoverer":"William Ramsay","molar_heat":null,"number":36,"period":4,"phase":"Gas","spectral_img":"https://wikipedia.org/wiki/File:Krypton_Spectrum.jpg","summary":"Krypton (from Greek:κρυπτός kryptos \"the hidden one\") is a chemical element with symbol Kr and atomic number 36. It is a member of group 18 (noble gases) elements. A colorless, odorless, tasteless noble gas, krypton occurs in trace amounts in the atmosphere, is isolated by fractionally distilling liquefied air, and is often used with other rare gases in fluorescent lamps.","symbol":"Kr","shells":[2,8,18,8],"electron_configuration":"1s2 2s2 2p6 3s2 3p6 4s2 3d10 4p6","electron_configuration_semantic":"[Ar] 3d10 4s2 4p6","electron_affinity":-96,"electronegativity_pauling":3,"ionization_energies":[1350.8,2350.4,3565,5070,6240,7570,10710,12138,22274,25880,29700,33800,37700,43100,47500,52200,57100,61800,75800,80400,85300,90400,96300,101400,111100,116290,282500,296200,311400,326200],"cpk-hex":"5cb8d1","row":4,"column":18,"n_neutrons":48,"n_protons":36,"n_electrons":36,"radioactive":null,"natural":true,"metal":null,"nonmetal":true,"metalloid":null,"atomic_radius":1,"electronegativity":null,"first_ionization":13.9996,"melting_point":115.93,"boiling_point":119.93,"number_of_isotopes":23,"year":1898,"specific_heat":0.248,"n_shells":4,"n_valence":8,"jmol_color":"(0.361, 0.722, 0.82)","covalent_radius":1.16}}}]}