{"type":"data","nodes":[{"data":null},{"data":{"element":{"name":"Iodine","appearance":"lustrous metallic gray, violet as a gas","atomic_mass":126.904473,"category":"diatomic nonmetal","density":4.933,"discoverer":"Bernard Courtois","molar_heat":null,"number":53,"period":5,"phase":"Solid","spectral_img":null,"summary":"Iodine is a chemical element with symbol I and atomic number 53. The name is from Greek ἰοειδής ioeidēs, meaning violet or purple, due to the color of iodine vapor. Iodine and its compounds are primarily used in nutrition, and industrially in the production of acetic acid and certain polymers.","symbol":"I","shells":[2,8,18,18,7],"electron_configuration":"1s2 2s2 2p6 3s2 3p6 4s2 3d10 4p6 5s2 4d10 5p5","electron_configuration_semantic":"[Kr] 4d10 5s2 5p5","electron_affinity":295.1531,"electronegativity_pauling":2.66,"ionization_energies":[1008.4,1845.9,3180],"cpk-hex":"940094","row":5,"column":17,"n_neutrons":74,"n_protons":53,"n_electrons":53,"radioactive":null,"natural":true,"metal":null,"nonmetal":true,"metalloid":null,"atomic_radius":1.3,"electronegativity":2.66,"first_ionization":10.4513,"melting_point":386.65,"boiling_point":457.4,"number_of_isotopes":24,"year":1811,"specific_heat":0.214,"n_shells":5,"n_valence":7,"jmol_color":"(0.58, 0.0, 0.58)","covalent_radius":1.39}}}]}