{"type":"data","nodes":[{"data":null},{"data":{"element":{"name":"Zirconium","appearance":"silvery white","atomic_mass":91.2242,"category":"transition metal","density":6.52,"discoverer":"Martin Klaproth","molar_heat":25.36,"number":40,"period":5,"phase":"Solid","spectral_img":null,"summary":"Zirconium is a chemical element with symbol Zr and atomic number 40. The name of zirconium is taken from the name of the mineral zircon, the most important source of zirconium. The word zircon comes from the Persian word zargun زرگون, meaning \"gold-colored\".","symbol":"Zr","shells":[2,8,18,10,2],"electron_configuration":"1s2 2s2 2p6 3s2 3p6 4s2 3d10 4p6 5s2 4d2","electron_configuration_semantic":"[Kr] 4d2 5s2","electron_affinity":41.806,"electronegativity_pauling":1.33,"ionization_energies":[640.1,1270,2218,3313,7752,9500],"cpk-hex":"94e0e0","row":5,"column":4,"n_neutrons":51,"n_protons":40,"n_electrons":40,"radioactive":null,"natural":true,"metal":true,"nonmetal":null,"metalloid":null,"atomic_radius":2.2,"electronegativity":1.33,"first_ionization":6.6339,"melting_point":2125.15,"boiling_point":4682,"number_of_isotopes":20,"year":1789,"specific_heat":0.278,"n_shells":5,"n_valence":null,"jmol_color":"(0.58, 0.878, 0.878)","covalent_radius":1.75}}}]}