{"type":"data","nodes":[{"data":null},{"data":{"element":{"name":"Actinium","appearance":null,"atomic_mass":227,"category":"actinide","density":10,"discoverer":"Friedrich Oskar Giesel","molar_heat":27.2,"number":89,"period":7,"phase":"Solid","spectral_img":null,"summary":"Actinium is a radioactive chemical element with symbol Ac (not to be confused with the abbreviation for an acetyl group) and atomic number 89, which was discovered in 1899. It was the first non-primordial radioactive element to be isolated. Polonium, radium and radon were observed before actinium, but they were not isolated until 1902.","symbol":"Ac","shells":[2,8,18,32,18,9,2],"electron_configuration":"1s2 2s2 2p6 3s2 3p6 4s2 3d10 4p6 5s2 4d10 5p6 6s2 4f14 5d10 6p6 7s2 6d1","electron_configuration_semantic":"[Rn] 6d1 7s2","electron_affinity":33.77,"electronegativity_pauling":1.1,"ionization_energies":[499,1170],"cpk-hex":"70abfa","row":10,"column":3,"n_neutrons":138,"n_protons":89,"n_electrons":89,"radioactive":true,"natural":true,"metal":true,"nonmetal":null,"metalloid":null,"atomic_radius":null,"electronegativity":1.1,"first_ionization":5.17,"melting_point":1323.15,"boiling_point":3471,"number_of_isotopes":11,"year":1899,"specific_heat":0.12,"n_shells":7,"n_valence":null,"jmol_color":"(0.439, 0.671, 0.98)","covalent_radius":2.15}}}]}