{"type":"data","nodes":[{"data":null},{"data":{"element":{"name":"Mercury","appearance":"silvery","atomic_mass":200.5923,"category":"transition metal","density":13.534,"discoverer":"unknown, before 2000 BCE","molar_heat":27.983,"number":80,"period":6,"phase":"Liquid","spectral_img":null,"summary":"Mercury is a chemical element with symbol Hg and atomic number 80. It is commonly known as quicksilver and was formerly named hydrargyrum (/haɪˈdrɑːrdʒərəm/). A heavy, silvery d-block element, mercury is the only metallic element that is liquid at standard conditions for temperature and pressure; the only other element that is liquid under these conditions is bromine, though metals such as caesium, gallium, and rubidium melt just above room temperature.","symbol":"Hg","shells":[2,8,18,32,18,2],"electron_configuration":"1s2 2s2 2p6 3s2 3p6 4s2 3d10 4p6 5s2 4d10 5p6 6s2 4f14 5d10","electron_configuration_semantic":"[Xe] 4f14 5d10 6s2","electron_affinity":-48,"electronegativity_pauling":2,"ionization_energies":[1007.1,1810,3300],"cpk-hex":"b8b8d0","row":6,"column":12,"n_neutrons":121,"n_protons":80,"n_electrons":80,"radioactive":null,"natural":true,"metal":true,"nonmetal":null,"metalloid":null,"atomic_radius":1.8,"electronegativity":2,"first_ionization":10.4375,"melting_point":234.43,"boiling_point":630,"number_of_isotopes":26,"year":"265 BC","specific_heat":0.14,"n_shells":6,"n_valence":null,"jmol_color":"(0.722, 0.722, 0.816)","covalent_radius":1.32}}}]}