{"type":"data","nodes":[{"data":null},{"data":{"element":{"name":"Radium","appearance":"silvery white metallic","atomic_mass":226,"category":"alkaline earth metal","density":5.5,"discoverer":"Pierre Curie","molar_heat":null,"number":88,"period":7,"phase":"Solid","spectral_img":null,"summary":"Radium is a chemical element with symbol Ra and atomic number 88. It is the sixth element in group 2 of the periodic table, also known as the alkaline earth metals. Pure radium is almost colorless, but it readily combines with nitrogen (rather than oxygen) on exposure to air, forming a black surface layer of radium nitride (Ra3N2).","symbol":"Ra","shells":[2,8,18,32,18,8,2],"electron_configuration":"1s2 2s2 2p6 3s2 3p6 4s2 3d10 4p6 5s2 4d10 5p6 6s2 4f14 5d10 6p6 7s2","electron_configuration_semantic":"[Rn] 7s2","electron_affinity":9.6485,"electronegativity_pauling":0.9,"ionization_energies":[509.3,979],"cpk-hex":"007d00","row":7,"column":2,"n_neutrons":138,"n_protons":88,"n_electrons":88,"radioactive":true,"natural":true,"metal":true,"nonmetal":null,"metalloid":null,"atomic_radius":null,"electronegativity":0.9,"first_ionization":5.2784,"melting_point":973.15,"boiling_point":2010,"number_of_isotopes":15,"year":1898,"specific_heat":null,"n_shells":7,"n_valence":2,"jmol_color":"(0.0, 0.49, 0.0)","covalent_radius":2.21}}}]}