{"type":"data","nodes":[{"data":null},{"data":{"element":{"name":"Terbium","appearance":"silvery white","atomic_mass":158.925352,"category":"lanthanide","density":8.23,"discoverer":"Carl Gustaf Mosander","molar_heat":28.91,"number":65,"period":6,"phase":"Solid","spectral_img":null,"summary":"Terbium is a chemical element with symbol Tb and atomic number 65. It is a silvery-white rare earth metal that is malleable, ductile and soft enough to be cut with a knife. Terbium is never found in nature as a free element, but it is contained in many minerals, including cerite, gadolinite, monazite, xenotime and euxenite.","symbol":"Tb","shells":[2,8,18,27,8,2],"electron_configuration":"1s2 2s2 2p6 3s2 3p6 4s2 3d10 4p6 5s2 4d10 5p6 6s2 4f9","electron_configuration_semantic":"[Xe] 4f9 6s2","electron_affinity":112.4,"electronegativity_pauling":1.1,"ionization_energies":[565.8,1110,2114,3839],"cpk-hex":"30ffc7","row":9,"column":11,"n_neutrons":94,"n_protons":65,"n_electrons":65,"radioactive":null,"natural":true,"metal":true,"nonmetal":null,"metalloid":null,"atomic_radius":2.5,"electronegativity":1.2,"first_ionization":5.8638,"melting_point":1630.15,"boiling_point":3503,"number_of_isotopes":24,"year":1843,"specific_heat":0.182,"n_shells":6,"n_valence":null,"jmol_color":"(0.188, 1.0, 0.78)","covalent_radius":1.94}}}]}