{"type":"data","nodes":[{"data":null},{"data":{"element":{"name":"Europium","appearance":null,"atomic_mass":151.9641,"category":"lanthanide","density":5.264,"discoverer":"Eugène-Anatole Demarçay","molar_heat":27.66,"number":63,"period":6,"phase":"Solid","spectral_img":null,"summary":"Europium is a chemical element with symbol Eu and atomic number 63. It was isolated in 1901 and is named after the continent of Europe. It is a moderately hard, silvery metal which readily oxidizes in air and water.","symbol":"Eu","shells":[2,8,18,25,8,2],"electron_configuration":"1s2 2s2 2p6 3s2 3p6 4s2 3d10 4p6 5s2 4d10 5p6 6s2 4f7","electron_configuration_semantic":"[Xe] 4f7 6s2","electron_affinity":11.2,"electronegativity_pauling":1.2,"ionization_energies":[547.1,1085,2404,4120],"cpk-hex":"61ffc7","row":9,"column":9,"n_neutrons":89,"n_protons":63,"n_electrons":63,"radioactive":null,"natural":true,"metal":true,"nonmetal":null,"metalloid":null,"atomic_radius":2.6,"electronegativity":1.2,"first_ionization":5.6704,"melting_point":1095.15,"boiling_point":1802,"number_of_isotopes":21,"year":1901,"specific_heat":0.182,"n_shells":6,"n_valence":null,"jmol_color":"(0.38, 1.0, 0.78)","covalent_radius":1.98}}}]}