{"type":"data","nodes":[{"data":null},{"data":{"element":{"name":"Livermorium","appearance":null,"atomic_mass":293,"category":"post-transition metal","density":12.9,"discoverer":"Joint Institute for Nuclear Research","molar_heat":null,"number":116,"period":7,"phase":"Solid","spectral_img":null,"summary":"Livermorium is a synthetic superheavy element with symbol Lv and atomic number 116. It is an extremely radioactive element that has only been created in the laboratory and has not been observed in nature. The element is named after the Lawrence Livermore National Laboratory in the United States, which collaborated with the Joint Institute for Nuclear Research in Dubna, Russia to discover livermorium in 2000.","symbol":"Lv","shells":[2,8,18,32,32,18,6],"electron_configuration":"1s2 2s2 2p6 3s2 3p6 4s2 3d10 4p6 5s2 4d10 5p6 6s2 4f14 5d10 6p6 7s2 5f14 6d10 7p4","electron_configuration_semantic":"*[Rn] 5f14 6d10 7s2 7p4","electron_affinity":74.9,"electronegativity_pauling":null,"ionization_energies":[],"cpk-hex":null,"row":7,"column":16,"n_neutrons":176,"n_protons":116,"n_electrons":116,"radioactive":true,"natural":null,"metal":true,"nonmetal":null,"metalloid":null,"atomic_radius":null,"electronegativity":null,"first_ionization":null,"melting_point":null,"boiling_point":null,"number_of_isotopes":null,"year":2000,"specific_heat":null,"n_shells":7,"n_valence":6,"jmol_color":"","covalent_radius":null}}}]}