{"type":"data","nodes":[{"data":null},{"data":{"element":{"name":"Thallium","appearance":"silvery white","atomic_mass":204.38,"category":"post-transition metal","density":11.85,"discoverer":"William Crookes","molar_heat":26.32,"number":81,"period":6,"phase":"Solid","spectral_img":null,"summary":"Thallium is a chemical element with symbol Tl and atomic number 81. This soft gray post-transition metal is not found free in nature. When isolated, it resembles tin, but discolors when exposed to air.","symbol":"Tl","shells":[2,8,18,32,18,3],"electron_configuration":"1s2 2s2 2p6 3s2 3p6 4s2 3d10 4p6 5s2 4d10 5p6 6s2 4f14 5d10 6p1","electron_configuration_semantic":"[Xe] 4f14 5d10 6s2 6p1","electron_affinity":36.4,"electronegativity_pauling":1.62,"ionization_energies":[589.4,1971,2878],"cpk-hex":"a6544d","row":6,"column":13,"n_neutrons":123,"n_protons":81,"n_electrons":81,"radioactive":null,"natural":true,"metal":true,"nonmetal":null,"metalloid":null,"atomic_radius":2.1,"electronegativity":2.04,"first_ionization":6.1082,"melting_point":577.15,"boiling_point":1746,"number_of_isotopes":28,"year":1861,"specific_heat":0.129,"n_shells":6,"n_valence":3,"jmol_color":"(0.651, 0.329, 0.302)","covalent_radius":1.45}}}]}