{"type":"data","nodes":[{"data":null},{"data":{"element":{"name":"Oxygen","appearance":null,"atomic_mass":15.999,"category":"diatomic nonmetal","density":1.429,"discoverer":"Carl Scheele","molar_heat":null,"number":8,"period":2,"phase":"Gas","spectral_img":"https://wikipedia.org/wiki/File:Oxygen_spectre.jpg","summary":"Oxygen is a chemical element with symbol O and atomic number 8. It is a member of the chalcogen group on the periodic table and is a highly reactive nonmetal and oxidizing agent that readily forms compounds (notably oxides) with most elements. By mass, oxygen is the third-most abundant element in the universe, after hydrogen and helium.","symbol":"O","shells":[2,6],"electron_configuration":"1s2 2s2 2p4","electron_configuration_semantic":"[He] 2s2 2p4","electron_affinity":140.976,"electronegativity_pauling":3.44,"ionization_energies":[1313.9,3388.3,5300.5,7469.2,10989.5,13326.5,71330,84078],"cpk-hex":"ff0d0d","row":2,"column":16,"n_neutrons":8,"n_protons":8,"n_electrons":8,"radioactive":null,"natural":true,"metal":null,"nonmetal":true,"metalloid":null,"atomic_radius":0.65,"electronegativity":3.44,"first_ionization":13.6181,"melting_point":50.5,"boiling_point":90.2,"number_of_isotopes":8,"year":1774,"specific_heat":0.918,"n_shells":2,"n_valence":6,"jmol_color":"(1.0, 0.051, 0.051)","covalent_radius":0.66}}}]}