{"type":"data","nodes":[{"data":null},{"data":{"element":{"name":"Promethium","appearance":"metallic","atomic_mass":145,"category":"lanthanide","density":7.26,"discoverer":"Chien Shiung Wu","molar_heat":null,"number":61,"period":6,"phase":"Solid","spectral_img":null,"summary":"Promethium, originally prometheum, is a chemical element with the symbol Pm and atomic number 61. All of its isotopes are radioactive; it is one of only two such elements that are followed in the periodic table by elements with stable forms, a distinction shared with technetium. Chemically, promethium is a lanthanide, which forms salts when combined with other elements.","symbol":"Pm","shells":[2,8,18,23,8,2],"electron_configuration":"1s2 2s2 2p6 3s2 3p6 4s2 3d10 4p6 5s2 4d10 5p6 6s2 4f5","electron_configuration_semantic":"[Xe] 4f5 6s2","electron_affinity":12.45,"electronegativity_pauling":1.13,"ionization_energies":[540,1050,2150,3970],"cpk-hex":"a3ffc7","row":9,"column":7,"n_neutrons":84,"n_protons":61,"n_electrons":61,"radioactive":true,"natural":null,"metal":true,"nonmetal":null,"metalloid":null,"atomic_radius":2.6,"electronegativity":1.13,"first_ionization":5.582,"melting_point":1204.15,"boiling_point":3273,"number_of_isotopes":14,"year":1945,"specific_heat":null,"n_shells":6,"n_valence":null,"jmol_color":"(0.639, 1.0, 0.78)","covalent_radius":1.99}}}]}