{"type":"data","nodes":[{"data":null},{"data":{"element":{"name":"Magnesium","appearance":"shiny grey solid","atomic_mass":24.305,"category":"alkaline earth metal","density":1.738,"discoverer":"Joseph Black","molar_heat":24.869,"number":12,"period":3,"phase":"Solid","spectral_img":"https://wikipedia.org/wiki/File:Magnesium_Spectra.jpg","summary":"Magnesium is a chemical element with symbol Mg and atomic number 12. It is a shiny gray solid which bears a close physical resemblance to the other five elements in the second column (Group 2, or alkaline earth metals) of the periodic table:they each have the same electron configuration in their outer electron shell producing a similar crystal structure. Magnesium is the ninth most abundant element in the universe.","symbol":"Mg","shells":[2,8,2],"electron_configuration":"1s2 2s2 2p6 3s2","electron_configuration_semantic":"[Ne] 3s2","electron_affinity":-40,"electronegativity_pauling":1.31,"ionization_energies":[737.7,1450.7,7732.7,10542.5,13630,18020,21711,25661,31653,35458,169988,189368],"cpk-hex":"8aff00","row":3,"column":2,"n_neutrons":12,"n_protons":12,"n_electrons":12,"radioactive":null,"natural":true,"metal":true,"nonmetal":null,"metalloid":null,"atomic_radius":1.7,"electronegativity":1.31,"first_ionization":7.6462,"melting_point":923.15,"boiling_point":1363,"number_of_isotopes":8,"year":1755,"specific_heat":1.023,"n_shells":3,"n_valence":2,"jmol_color":"(0.541, 1.0, 0.0)","covalent_radius":1.41}}}]}