{"type":"data","nodes":[{"data":null},{"data":{"element":{"name":"Lead","appearance":"metallic gray","atomic_mass":207.21,"category":"post-transition metal","density":11.34,"discoverer":"Middle East","molar_heat":26.65,"number":82,"period":6,"phase":"Solid","spectral_img":null,"summary":"Lead (/l…õd/) is a chemical element in the carbon group with symbol Pb (from Latin:plumbum) and atomic number 82. Lead is a soft, malleable and heavy post-transition metal. Metallic lead has a bluish-white color after being freshly cut, but it soon tarnishes to a dull grayish color when exposed to air.","symbol":"Pb","shells":[2,8,18,32,18,4],"electron_configuration":"1s2 2s2 2p6 3s2 3p6 4s2 3d10 4p6 5s2 4d10 5p6 6s2 4f14 5d10 6p2","electron_configuration_semantic":"[Xe] 4f14 5d10 6s2 6p2","electron_affinity":34.4204,"electronegativity_pauling":1.87,"ionization_energies":[715.6,1450.5,3081.5,4083,6640],"cpk-hex":"575961","row":6,"column":14,"n_neutrons":125,"n_protons":82,"n_electrons":82,"radioactive":null,"natural":true,"metal":true,"nonmetal":null,"metalloid":null,"atomic_radius":1.8,"electronegativity":2.33,"first_ionization":7.4167,"melting_point":600.75,"boiling_point":2022,"number_of_isotopes":29,"year":"~5000 BC","specific_heat":0.129,"n_shells":6,"n_valence":4,"jmol_color":"(0.341, 0.349, 0.38)","covalent_radius":1.46}}}]}