{"type":"data","nodes":[{"data":null},{"data":{"element":{"name":"Hydrogen","appearance":"colorless gas","atomic_mass":1.008,"category":"diatomic nonmetal","density":0.08988,"discoverer":"Henry Cavendish","molar_heat":28.836,"number":1,"period":1,"phase":"Gas","spectral_img":"https://wikipedia.org/wiki/File:Hydrogen_Spectra.jpg","summary":"Hydrogen is a chemical element with chemical symbol H and atomic number 1. With an atomic weight of 1.00794 u, hydrogen is the lightest element on the periodic table. Its monatomic form (H) is the most abundant chemical substance in the Universe, constituting roughly 75% of all baryonic mass.","symbol":"H","shells":[1],"electron_configuration":"1s1","electron_configuration_semantic":"1s1","electron_affinity":72.769,"electronegativity_pauling":2.2,"ionization_energies":[1312],"cpk-hex":"ffffff","row":1,"column":1,"n_neutrons":0,"n_protons":1,"n_electrons":1,"radioactive":null,"natural":true,"metal":null,"nonmetal":true,"metalloid":null,"atomic_radius":0.79,"electronegativity":2.2,"first_ionization":13.5984,"melting_point":14.175,"boiling_point":20.28,"number_of_isotopes":3,"year":1766,"specific_heat":14.304,"n_shells":1,"n_valence":1,"jmol_color":"(1.0, 1.0, 1.0)","covalent_radius":0.31}}}]}