{"type":"data","nodes":[{"data":null},{"data":{"element":{"name":"Neodymium","appearance":"silvery white","atomic_mass":144.2423,"category":"lanthanide","density":7.01,"discoverer":"Carl Auer von Welsbach","molar_heat":27.45,"number":60,"period":6,"phase":"Solid","spectral_img":null,"summary":"Neodymium is a chemical element with symbol Nd and atomic number 60. It is a soft silvery metal that tarnishes in air. Neodymium was discovered in 1885 by the Austrian chemist Carl Auer von Welsbach.","symbol":"Nd","shells":[2,8,18,22,8,2],"electron_configuration":"1s2 2s2 2p6 3s2 3p6 4s2 3d10 4p6 5s2 4d10 5p6 6s2 4f4","electron_configuration_semantic":"[Xe] 4f4 6s2","electron_affinity":184.87,"electronegativity_pauling":1.14,"ionization_energies":[533.1,1040,2130,3900],"cpk-hex":"c7ffc7","row":9,"column":6,"n_neutrons":84,"n_protons":60,"n_electrons":60,"radioactive":null,"natural":true,"metal":true,"nonmetal":null,"metalloid":null,"atomic_radius":2.6,"electronegativity":1.14,"first_ionization":5.525,"melting_point":1289.15,"boiling_point":3347,"number_of_isotopes":16,"year":1885,"specific_heat":0.19,"n_shells":6,"n_valence":null,"jmol_color":"(0.78, 1.0, 0.78)","covalent_radius":2.01}}}]}