{"type":"data","nodes":[{"data":null},{"data":{"element":{"name":"Niobium","appearance":"gray metallic, bluish when oxidized","atomic_mass":92.906372,"category":"transition metal","density":8.57,"discoverer":"Charles Hatchett","molar_heat":24.6,"number":41,"period":5,"phase":"Solid","spectral_img":null,"summary":"Niobium, formerly columbium, is a chemical element with symbol Nb (formerly Cb) and atomic number 41. It is a soft, grey, ductile transition metal, which is often found in the pyrochlore mineral, the main commercial source for niobium, and columbite. The name comes from Greek mythology:Niobe, daughter of Tantalus since it is so similar to tantalum.","symbol":"Nb","shells":[2,8,18,12,1],"electron_configuration":"1s2 2s2 2p6 3s2 3p6 4s2 3d10 4p6 5s1 4d4","electron_configuration_semantic":"[Kr] 4d4 5s1","electron_affinity":88.516,"electronegativity_pauling":1.6,"ionization_energies":[652.1,1380,2416,3700,4877,9847,12100],"cpk-hex":"73c2c9","row":5,"column":5,"n_neutrons":52,"n_protons":41,"n_electrons":41,"radioactive":null,"natural":true,"metal":true,"nonmetal":null,"metalloid":null,"atomic_radius":2.1,"electronegativity":1.6,"first_ionization":6.7589,"melting_point":2741.15,"boiling_point":5017,"number_of_isotopes":24,"year":1801,"specific_heat":0.265,"n_shells":5,"n_valence":null,"jmol_color":"(0.451, 0.761, 0.788)","covalent_radius":1.64}}}]}