{"type":"data","nodes":[{"data":null},{"data":{"element":{"name":"Scandium","appearance":"silvery white","atomic_mass":44.9559085,"category":"transition metal","density":2.985,"discoverer":"Lars Fredrik Nilson","molar_heat":25.52,"number":21,"period":4,"phase":"Solid","spectral_img":null,"summary":"Scandium is a chemical element with symbol Sc and atomic number 21. A silvery-white metallic d-block element, it has historically been sometimes classified as a rare earth element, together with yttrium and the lanthanoids. It was discovered in 1879 by spectral analysis of the minerals euxenite and gadolinite from Scandinavia.","symbol":"Sc","shells":[2,8,9,2],"electron_configuration":"1s2 2s2 2p6 3s2 3p6 4s2 3d1","electron_configuration_semantic":"[Ar] 3d1 4s2","electron_affinity":18,"electronegativity_pauling":1.36,"ionization_energies":[633.1,1235,2388.6,7090.6,8843,10679,13310,15250,17370,21726,24102,66320,73010,80160,89490,97400,105600,117000,124270,547530,582163],"cpk-hex":"e6e6e6","row":4,"column":3,"n_neutrons":24,"n_protons":21,"n_electrons":21,"radioactive":null,"natural":true,"metal":true,"nonmetal":null,"metalloid":null,"atomic_radius":2.1,"electronegativity":1.36,"first_ionization":6.5615,"melting_point":1812.15,"boiling_point":3109,"number_of_isotopes":15,"year":1878,"specific_heat":0.568,"n_shells":4,"n_valence":null,"jmol_color":"(0.902, 0.902, 0.902)","covalent_radius":1.7}}}]}