{"type":"data","nodes":[{"data":null},{"data":{"element":{"name":"Strontium","appearance":null,"atomic_mass":87.621,"category":"alkaline earth metal","density":2.64,"discoverer":"William Cruickshank","molar_heat":26.4,"number":38,"period":5,"phase":"Solid","spectral_img":null,"summary":"Strontium is a chemical element with symbol Sr and atomic number 38. An alkaline earth metal, strontium is a soft silver-white or yellowish metallic element that is highly reactive chemically. The metal turns yellow when it is exposed to air.","symbol":"Sr","shells":[2,8,18,8,2],"electron_configuration":"1s2 2s2 2p6 3s2 3p6 4s2 3d10 4p6 5s2","electron_configuration_semantic":"[Kr] 5s2","electron_affinity":5.023,"electronegativity_pauling":0.95,"ionization_energies":[549.5,1064.2,4138,5500,6910,8760,10230,11800,15600,17100,31270],"cpk-hex":"00ff00","row":5,"column":2,"n_neutrons":50,"n_protons":38,"n_electrons":38,"radioactive":null,"natural":true,"metal":true,"nonmetal":null,"metalloid":null,"atomic_radius":2.5,"electronegativity":0.95,"first_ionization":5.6949,"melting_point":1042.15,"boiling_point":1655,"number_of_isotopes":18,"year":1808,"specific_heat":0.301,"n_shells":5,"n_valence":2,"jmol_color":"(0.0, 1.0, 0.0)","covalent_radius":1.95}}}]}