{"type":"data","nodes":[{"data":null},{"data":{"element":{"name":"Cerium","appearance":"silvery white","atomic_mass":140.1161,"category":"lanthanide","density":6.77,"discoverer":"Martin Klaproth","molar_heat":26.94,"number":58,"period":6,"phase":"Solid","spectral_img":null,"summary":"Cerium is a chemical element with symbol Ce and atomic number 58. It is a soft, silvery, ductile metal which easily oxidizes in air. Cerium was named after the dwarf planet Ceres (itself named after the Roman goddess of agriculture).","symbol":"Ce","shells":[2,8,18,19,9,2],"electron_configuration":"1s2 2s2 2p6 3s2 3p6 4s2 3d10 4p6 5s2 4d10 5p6 6s2 5d1 4f1","electron_configuration_semantic":"[Xe] 4f1 5d1 6s2","electron_affinity":55,"electronegativity_pauling":1.12,"ionization_energies":[534.4,1050,1949,3547,6325,7490],"cpk-hex":"ffffc7","row":9,"column":4,"n_neutrons":82,"n_protons":58,"n_electrons":58,"radioactive":null,"natural":true,"metal":true,"nonmetal":null,"metalloid":null,"atomic_radius":2.7,"electronegativity":1.12,"first_ionization":5.5387,"melting_point":1071.15,"boiling_point":3716,"number_of_isotopes":19,"year":1803,"specific_heat":0.192,"n_shells":6,"n_valence":null,"jmol_color":"(1.0, 1.0, 0.78)","covalent_radius":2.04}}}]}