{"type":"data","nodes":[{"data":null},{"data":{"element":{"name":"Iron","appearance":"lustrous metallic with a grayish tinge","atomic_mass":55.8452,"category":"transition metal","density":7.874,"discoverer":"5000 BC","molar_heat":25.1,"number":26,"period":4,"phase":"Solid","spectral_img":"https://wikipedia.org/wiki/File:Iron_Spectrum.jpg","summary":"Iron is a chemical element with symbol Fe (from Latin:ferrum) and atomic number 26. It is a metal in the first transition series. It is by mass the most common element on Earth, forming much of Earth's outer and inner core.","symbol":"Fe","shells":[2,8,14,2],"electron_configuration":"1s2 2s2 2p6 3s2 3p6 4s2 3d6","electron_configuration_semantic":"[Ar] 3d6 4s2","electron_affinity":14.785,"electronegativity_pauling":1.83,"ionization_energies":[762.5,1561.9,2957,5290,7240,9560,12060,14580,22540,25290,28000,31920,34830,37840,44100,47206,122200,131000,140500,152600,163000,173600,188100,195200,851800,895161],"cpk-hex":"e06633","row":4,"column":8,"n_neutrons":30,"n_protons":26,"n_electrons":26,"radioactive":null,"natural":true,"metal":true,"nonmetal":null,"metalloid":null,"atomic_radius":1.7,"electronegativity":1.83,"first_ionization":7.9024,"melting_point":1808.15,"boiling_point":3134,"number_of_isotopes":10,"year":"~5000 BC","specific_heat":0.449,"n_shells":4,"n_valence":null,"jmol_color":"(0.878, 0.4, 0.2)","covalent_radius":1.32}}}]}