{"type":"data","nodes":[{"data":null},{"data":{"element":{"name":"Oganesson","appearance":null,"atomic_mass":294,"category":"noble gas","density":4.95,"discoverer":"Joint Institute for Nuclear Research","molar_heat":null,"number":118,"period":7,"phase":"Solid","spectral_img":null,"summary":"Oganesson is IUPAC's name for the transactinide element with the atomic number 118 and element symbol Og. It is also known as eka-radon or element 118, and on the periodic table of the elements it is a p-block element and the last one of the 7th period. Oganesson is currently the only synthetic member of group 18.","symbol":"Og","shells":[2,8,18,32,32,18,8],"electron_configuration":"1s2 2s2 2p6 3s2 3p6 4s2 3d10 4p6 5s2 4d10 5p6 6s2 4f14 5d10 6p6 7s2 5f14 6d10 7p6","electron_configuration_semantic":"*[Rn] 5f14 6d10 7s2 7p6","electron_affinity":5.40318,"electronegativity_pauling":null,"ionization_energies":[],"cpk-hex":null,"row":7,"column":18,"n_neutrons":176,"n_protons":118,"n_electrons":118,"radioactive":true,"natural":null,"metal":null,"nonmetal":true,"metalloid":null,"atomic_radius":null,"electronegativity":null,"first_ionization":null,"melting_point":null,"boiling_point":null,"number_of_isotopes":null,"year":2006,"specific_heat":null,"n_shells":7,"n_valence":8,"jmol_color":"","covalent_radius":null}}}]}