{"type":"data","nodes":[{"data":null},{"data":{"element":{"name":"Helium","appearance":"colorless gas, exhibiting a red-orange glow when placed in a high-voltage electric field","atomic_mass":4.0026022,"category":"noble gas","density":0.1786,"discoverer":"Pierre Janssen","molar_heat":null,"number":2,"period":1,"phase":"Gas","spectral_img":"https://wikipedia.org/wiki/File:Helium_spectrum.jpg","summary":"Helium is a chemical element with symbol He and atomic number 2. It is a colorless, odorless, tasteless, non-toxic, inert, monatomic gas that heads the noble gas group in the periodic table. Its boiling and melting points are the lowest among all the elements.","symbol":"He","shells":[2],"electron_configuration":"1s2","electron_configuration_semantic":"1s2","electron_affinity":-48,"electronegativity_pauling":null,"ionization_energies":[2372.3,5250.5],"cpk-hex":"d9ffff","row":1,"column":18,"n_neutrons":2,"n_protons":2,"n_electrons":2,"radioactive":null,"natural":true,"metal":null,"nonmetal":true,"metalloid":null,"atomic_radius":0.49,"electronegativity":null,"first_ionization":24.5874,"melting_point":null,"boiling_point":4.22,"number_of_isotopes":5,"year":1868,"specific_heat":5.193,"n_shells":1,"n_valence":null,"jmol_color":"(0.851, 1.0, 1.0)","covalent_radius":0.28}}}]}