{"type":"data","nodes":[{"data":null},{"data":{"element":{"name":"Radon","appearance":"colorless gas, occasionally glows green or red in discharge tubes","atomic_mass":222,"category":"noble gas","density":9.73,"discoverer":"Friedrich Ernst Dorn","molar_heat":null,"number":86,"period":6,"phase":"Gas","spectral_img":"https://wikipedia.org/wiki/File:Radon_spectrum.png","summary":"Radon is a chemical element with symbol Rn and atomic number 86. It is a radioactive, colorless, odorless, tasteless noble gas, occurring naturally as a decay product of radium. Its most stable isotope, 222Rn, has a half-life of 3.8 days.","symbol":"Rn","shells":[2,8,18,32,18,8],"electron_configuration":"1s2 2s2 2p6 3s2 3p6 4s2 3d10 4p6 5s2 4d10 5p6 6s2 4f14 5d10 6p6","electron_configuration_semantic":"[Xe] 4f14 5d10 6s2 6p6","electron_affinity":-68,"electronegativity_pauling":2.2,"ionization_energies":[1037],"cpk-hex":"428296","row":6,"column":18,"n_neutrons":136,"n_protons":86,"n_electrons":86,"radioactive":true,"natural":true,"metal":true,"nonmetal":null,"metalloid":null,"atomic_radius":1.3,"electronegativity":null,"first_ionization":10.7485,"melting_point":202.15,"boiling_point":211.3,"number_of_isotopes":20,"year":1900,"specific_heat":0.094,"n_shells":6,"n_valence":8,"jmol_color":"(0.259, 0.51, 0.588)","covalent_radius":1.5}}}]}