{"type":"data","nodes":[{"data":null},{"data":{"element":{"name":"Chlorine","appearance":"pale yellow-green gas","atomic_mass":35.45,"category":"diatomic nonmetal","density":3.2,"discoverer":"Carl Wilhelm Scheele","molar_heat":null,"number":17,"period":3,"phase":"Gas","spectral_img":"https://wikipedia.org/wiki/File:Chlorine_spectrum_visible.png","summary":"Chlorine is a chemical element with symbol Cl and atomic number 17. It also has a relative atomic mass of 35.5. Chlorine is in the halogen group (17) and is the second lightest halogen following fluorine.","symbol":"Cl","shells":[2,8,7],"electron_configuration":"1s2 2s2 2p6 3s2 3p5","electron_configuration_semantic":"[Ne] 3s2 3p5","electron_affinity":348.575,"electronegativity_pauling":3.16,"ionization_energies":[1251.2,2298,3822,5158.6,6542,9362,11018,33604,38600,43961,51068,57119,63363,72341,78095,352994,380760],"cpk-hex":"1ff01f","row":3,"column":17,"n_neutrons":18,"n_protons":17,"n_electrons":17,"radioactive":null,"natural":true,"metal":null,"nonmetal":true,"metalloid":null,"atomic_radius":0.97,"electronegativity":3.16,"first_ionization":12.9676,"melting_point":172.31,"boiling_point":239.11,"number_of_isotopes":11,"year":1774,"specific_heat":0.479,"n_shells":3,"n_valence":7,"jmol_color":"(0.122, 0.941, 0.122)","covalent_radius":1.02}}}]}