{"type":"data","nodes":[{"data":null},{"data":{"element":{"name":"Rutherfordium","appearance":null,"atomic_mass":267,"category":"transition metal","density":23.2,"discoverer":"Joint Institute for Nuclear Research","molar_heat":null,"number":104,"period":7,"phase":"Solid","spectral_img":null,"summary":"Rutherfordium is a chemical element with symbol Rf and atomic number 104, named in honor of physicist Ernest Rutherford. It is a synthetic element (an element that can be created in a laboratory but is not found in nature) and radioactive; the most stable known isotope, 267Rf, has a half-life of approximately 1.3 hours. In the periodic table of the elements, it is a d - block element and the second of the fourth - row transition elements.","symbol":"Rf","shells":[2,8,18,32,32,10,2],"electron_configuration":"1s2 2s2 2p6 3s2 3p6 4s2 3d10 4p6 5s2 4d10 5p6 6s2 4f14 5d10 6p6 7s2 5f14 6d2","electron_configuration_semantic":"[Rn] 5f14 6d2 7s2","electron_affinity":null,"electronegativity_pauling":null,"ionization_energies":[580],"cpk-hex":"cc0059","row":7,"column":4,"n_neutrons":157,"n_protons":104,"n_electrons":104,"radioactive":true,"natural":null,"metal":true,"nonmetal":null,"metalloid":null,"atomic_radius":null,"electronegativity":null,"first_ionization":null,"melting_point":null,"boiling_point":null,"number_of_isotopes":null,"year":1969,"specific_heat":null,"n_shells":7,"n_valence":null,"jmol_color":"(0.8, 0.0, 0.349)","covalent_radius":null}}}]}