{"type":"data","nodes":[{"data":null},{"data":{"element":{"name":"Thulium","appearance":"silvery gray","atomic_mass":168.934222,"category":"lanthanide","density":9.32,"discoverer":"Per Teodor Cleve","molar_heat":27.03,"number":69,"period":6,"phase":"Solid","spectral_img":null,"summary":"Thulium is a chemical element with symbol Tm and atomic number 69. It is the thirteenth and antepenultimate (third-last) element in the lanthanide series. Like the other lanthanides, the most common oxidation state is +3, seen in its oxide, halides and other compounds.","symbol":"Tm","shells":[2,8,18,31,8,2],"electron_configuration":"1s2 2s2 2p6 3s2 3p6 4s2 3d10 4p6 5s2 4d10 5p6 6s2 4f13","electron_configuration_semantic":"[Xe] 4f13 6s2","electron_affinity":99,"electronegativity_pauling":1.25,"ionization_energies":[596.7,1160,2285,4120],"cpk-hex":"00d452","row":9,"column":15,"n_neutrons":100,"n_protons":69,"n_electrons":69,"radioactive":null,"natural":true,"metal":true,"nonmetal":null,"metalloid":null,"atomic_radius":2.4,"electronegativity":1.25,"first_ionization":6.1843,"melting_point":1818.15,"boiling_point":2223,"number_of_isotopes":18,"year":1879,"specific_heat":0.16,"n_shells":6,"n_valence":null,"jmol_color":"(0.0, 0.831, 0.322)","covalent_radius":1.9}}}]}