{"type":"data","nodes":[{"data":null},{"data":{"element":{"name":"Seaborgium","appearance":null,"atomic_mass":269,"category":"transition metal","density":35,"discoverer":"Lawrence Berkeley Laboratory","molar_heat":null,"number":106,"period":7,"phase":"Solid","spectral_img":null,"summary":"Seaborgium is a synthetic element with symbol Sg and atomic number 106. Its most stable isotope 271Sg has a half-life of 1.9 minutes. A more recently discovered isotope 269Sg has a potentially slightly longer half-life (ca.","symbol":"Sg","shells":[2,8,18,32,32,12,2],"electron_configuration":"1s2 2s2 2p6 3s2 3p6 4s2 3d10 4p6 5s2 4d10 5p6 6s2 4f14 5d10 6p6 7s2 5f14 6d4","electron_configuration_semantic":"*[Rn] 5f14 6d4 7s2","electron_affinity":null,"electronegativity_pauling":null,"ionization_energies":[],"cpk-hex":"d90045","row":7,"column":6,"n_neutrons":160,"n_protons":106,"n_electrons":106,"radioactive":true,"natural":null,"metal":true,"nonmetal":null,"metalloid":null,"atomic_radius":null,"electronegativity":null,"first_ionization":null,"melting_point":null,"boiling_point":null,"number_of_isotopes":null,"year":1974,"specific_heat":null,"n_shells":7,"n_valence":null,"jmol_color":"(0.851, 0.0, 0.271)","covalent_radius":null}}}]}