{"type":"data","nodes":[{"data":null},{"data":{"element":{"name":"Rhenium","appearance":"silvery-grayish","atomic_mass":186.2071,"category":"transition metal","density":21.02,"discoverer":"Masataka Ogawa","molar_heat":25.48,"number":75,"period":6,"phase":"Solid","spectral_img":null,"summary":"Rhenium is a chemical element with symbol Re and atomic number 75. It is a silvery-white, heavy, third-row transition metal in group 7 of the periodic table. With an estimated average concentration of 1 part per billion (ppb), rhenium is one of the rarest elements in the Earth's crust.","symbol":"Re","shells":[2,8,18,32,13,2],"electron_configuration":"1s2 2s2 2p6 3s2 3p6 4s2 3d10 4p6 5s2 4d10 5p6 6s2 4f14 5d5","electron_configuration_semantic":"[Xe] 4f14 5d5 6s2","electron_affinity":5.8273,"electronegativity_pauling":1.9,"ionization_energies":[760,1260,2510,3640],"cpk-hex":"267dab","row":6,"column":7,"n_neutrons":111,"n_protons":75,"n_electrons":75,"radioactive":null,"natural":true,"metal":true,"nonmetal":null,"metalloid":null,"atomic_radius":2,"electronegativity":1.9,"first_ionization":7.8335,"melting_point":3453.15,"boiling_point":5869,"number_of_isotopes":21,"year":1925,"specific_heat":0.137,"n_shells":6,"n_valence":null,"jmol_color":"(0.149, 0.49, 0.671)","covalent_radius":1.51}}}]}