{"type":"data","nodes":[{"data":null},{"data":{"element":{"name":"Germanium","appearance":"grayish-white","atomic_mass":72.6308,"category":"metalloid","density":5.323,"discoverer":"Clemens Winkler","molar_heat":23.222,"number":32,"period":4,"phase":"Solid","spectral_img":null,"summary":"Germanium is a chemical element with symbol Ge and atomic number 32. It is a lustrous, hard, grayish-white metalloid in the carbon group, chemically similar to its group neighbors tin and silicon. Purified germanium is a semiconductor, with an appearance most similar to elemental silicon.","symbol":"Ge","shells":[2,8,18,4],"electron_configuration":"1s2 2s2 2p6 3s2 3p6 4s2 3d10 4p2","electron_configuration_semantic":"[Ar] 3d10 4s2 4p2","electron_affinity":118.9352,"electronegativity_pauling":2.01,"ionization_energies":[762,1537.5,3302.1,4411,9020],"cpk-hex":"668f8f","row":4,"column":14,"n_neutrons":41,"n_protons":32,"n_electrons":32,"radioactive":null,"natural":true,"metal":null,"nonmetal":null,"metalloid":true,"atomic_radius":1.5,"electronegativity":2.01,"first_ionization":7.8994,"melting_point":1211.45,"boiling_point":3106,"number_of_isotopes":17,"year":1886,"specific_heat":0.32,"n_shells":4,"n_valence":4,"jmol_color":"(0.4, 0.561, 0.561)","covalent_radius":1.2}}}]}