{"type":"data","nodes":[{"data":null},{"data":{"element":{"name":"Argon","appearance":"colorless gas exhibiting a lilac/violet glow when placed in a high voltage electric field","atomic_mass":39.9481,"category":"noble gas","density":1.784,"discoverer":"Lord Rayleigh","molar_heat":null,"number":18,"period":3,"phase":"Gas","spectral_img":"https://wikipedia.org/wiki/File:Argon_Spectrum.png","summary":"Argon is a chemical element with symbol Ar and atomic number 18. It is in group 18 of the periodic table and is a noble gas. Argon is the third most common gas in the Earth's atmosphere, at 0.934% (9,340 ppmv), making it over twice as abundant as the next most common atmospheric gas, water vapor (which averages about 4000 ppmv, but varies greatly), and 23 times as abundant as the next most common non-condensing atmospheric gas, carbon dioxide (400 ppmv), and more than 500 times as abundant as the next most common noble gas, neon (18 ppmv).","symbol":"Ar","shells":[2,8,8],"electron_configuration":"1s2 2s2 2p6 3s2 3p6","electron_configuration_semantic":"[Ne] 3s2 3p6","electron_affinity":-96,"electronegativity_pauling":null,"ionization_energies":[1520.6,2665.8,3931,5771,7238,8781,11995,13842,40760,46186,52002,59653,66199,72918,82473,88576,397605,427066],"cpk-hex":"80d1e3","row":3,"column":18,"n_neutrons":22,"n_protons":18,"n_electrons":18,"radioactive":null,"natural":true,"metal":null,"nonmetal":true,"metalloid":null,"atomic_radius":0.88,"electronegativity":null,"first_ionization":15.7596,"melting_point":83.96,"boiling_point":87.3,"number_of_isotopes":8,"year":1894,"specific_heat":0.52,"n_shells":3,"n_valence":8,"jmol_color":"(0.502, 0.82, 0.89)","covalent_radius":1.06}}}]}