{"type":"data","nodes":[{"data":null},{"data":{"element":{"name":"Neon","appearance":"colorless gas exhibiting an orange-red glow when placed in a high voltage electric field","atomic_mass":20.17976,"category":"noble gas","density":0.9002,"discoverer":"Morris Travers","molar_heat":null,"number":10,"period":2,"phase":"Gas","spectral_img":"https://wikipedia.org/wiki/File:Neon_spectra.jpg","summary":"Neon is a chemical element with symbol Ne and atomic number 10. It is in group 18 (noble gases) of the periodic table. Neon is a colorless, odorless, inert monatomic gas under standard conditions, with about two-thirds the density of air.","symbol":"Ne","shells":[2,8],"electron_configuration":"1s2 2s2 2p6","electron_configuration_semantic":"[He] 2s2 2p6","electron_affinity":-116,"electronegativity_pauling":null,"ionization_energies":[2080.7,3952.3,6122,9371,12177,15238,19999,23069.5,115379.5,131432],"cpk-hex":"b3e3f5","row":2,"column":18,"n_neutrons":10,"n_protons":10,"n_electrons":10,"radioactive":null,"natural":true,"metal":null,"nonmetal":true,"metalloid":null,"atomic_radius":0.51,"electronegativity":null,"first_ionization":21.5645,"melting_point":24.703,"boiling_point":27.07,"number_of_isotopes":8,"year":1898,"specific_heat":1.03,"n_shells":2,"n_valence":8,"jmol_color":"(0.702, 0.89, 0.961)","covalent_radius":0.58}}}]}