{"type":"data","nodes":[{"data":null},{"data":{"element":{"name":"Holmium","appearance":"silvery white","atomic_mass":164.930332,"category":"lanthanide","density":8.79,"discoverer":"Marc Delafontaine","molar_heat":27.15,"number":67,"period":6,"phase":"Solid","spectral_img":null,"summary":"Holmium is a chemical element with symbol Ho and atomic number 67. Part of the lanthanide series, holmium is a rare earth element. Holmium was discovered by Swedish chemist Per Theodor Cleve.","symbol":"Ho","shells":[2,8,18,29,8,2],"electron_configuration":"1s2 2s2 2p6 3s2 3p6 4s2 3d10 4p6 5s2 4d10 5p6 6s2 4f11","electron_configuration_semantic":"[Xe] 4f11 6s2","electron_affinity":32.61,"electronegativity_pauling":1.23,"ionization_energies":[581,1140,2204,4100],"cpk-hex":"00ff9c","row":9,"column":13,"n_neutrons":98,"n_protons":67,"n_electrons":67,"radioactive":null,"natural":true,"metal":true,"nonmetal":null,"metalloid":null,"atomic_radius":2.5,"electronegativity":1.23,"first_ionization":6.0215,"melting_point":1743.15,"boiling_point":2993,"number_of_isotopes":29,"year":1878,"specific_heat":0.165,"n_shells":6,"n_valence":null,"jmol_color":"(0.0, 1.0, 0.612)","covalent_radius":1.92}}}]}