{"type":"data","nodes":[{"data":null},{"data":{"element":{"name":"Technetium","appearance":"shiny gray metal","atomic_mass":98,"category":"transition metal","density":11,"discoverer":"Emilio Segrè","molar_heat":24.27,"number":43,"period":5,"phase":"Solid","spectral_img":null,"summary":"Technetium (/tɛkˈniːʃiəm/) is a chemical element with symbol Tc and atomic number 43. It is the element with the lowest atomic number in the periodic table that has no stable isotopes:every form of it is radioactive. Nearly all technetium is produced synthetically, and only minute amounts are found in nature.","symbol":"Tc","shells":[2,8,18,13,2],"electron_configuration":"1s2 2s2 2p6 3s2 3p6 4s2 3d10 4p6 5s2 4d5","electron_configuration_semantic":"[Kr] 4d5 5s2","electron_affinity":53,"electronegativity_pauling":1.9,"ionization_energies":[702,1470,2850],"cpk-hex":"3b9e9e","row":5,"column":7,"n_neutrons":55,"n_protons":43,"n_electrons":43,"radioactive":true,"natural":null,"metal":true,"nonmetal":null,"metalloid":null,"atomic_radius":2,"electronegativity":1.9,"first_ionization":7.28,"melting_point":2473.15,"boiling_point":5150,"number_of_isotopes":23,"year":1937,"specific_heat":null,"n_shells":5,"n_valence":null,"jmol_color":"(0.231, 0.62, 0.62)","covalent_radius":1.47}}}]}