{"type":"data","nodes":[{"data":null},{"data":{"element":{"name":"Nihonium","appearance":null,"atomic_mass":286,"category":"post-transition metal","density":16,"discoverer":"RIKEN","molar_heat":null,"number":113,"period":7,"phase":"Solid","spectral_img":null,"summary":"Nihonium is a chemical element with atomic number 113. It has a symbol Nh. It is a synthetic element (an element that can be created in a laboratory but is not found in nature) and is extremely radioactive; its most stable known isotope, nihonium-286, has a half-life of 20 seconds.","symbol":"Nh","shells":[2,8,18,32,32,18,3],"electron_configuration":"1s2 2s2 2p6 3s2 3p6 4s2 3d10 4p6 5s2 4d10 5p6 6s2 4f14 5d10 6p6 7s2 5f14 6d10 7p1","electron_configuration_semantic":"*[Rn] 5f14 6d10 7s2 7p1","electron_affinity":66.6,"electronegativity_pauling":null,"ionization_energies":[],"cpk-hex":null,"row":7,"column":13,"n_neutrons":171,"n_protons":113,"n_electrons":113,"radioactive":true,"natural":null,"metal":true,"nonmetal":null,"metalloid":null,"atomic_radius":null,"electronegativity":null,"first_ionization":null,"melting_point":null,"boiling_point":null,"number_of_isotopes":null,"year":2004,"specific_heat":null,"n_shells":7,"n_valence":3,"jmol_color":"","covalent_radius":null}}}]}