{"type":"data","nodes":[{"data":null},{"data":{"element":{"name":"Mendelevium","appearance":null,"atomic_mass":258,"category":"actinide","density":null,"discoverer":"Lawrence Berkeley Laboratory","molar_heat":null,"number":101,"period":7,"phase":"Solid","spectral_img":null,"summary":"Mendelevium is a synthetic element with chemical symbol Md (formerly Mv) and atomic number 101. A metallic radioactive transuranic element in the actinide series, it is the first element that currently cannot be produced in macroscopic quantities through neutron bombardment of lighter elements. It is the antepenultimate actinide and the ninth transuranic element.","symbol":"Md","shells":[2,8,18,32,31,8,2],"electron_configuration":"1s2 2s2 2p6 3s2 3p6 4s2 3d10 4p6 5s2 4d10 5p6 6s2 4f14 5d10 6p6 7s2 5f13","electron_configuration_semantic":"[Rn] 5f13 7s2","electron_affinity":93.91,"electronegativity_pauling":1.3,"ionization_energies":[635],"cpk-hex":"b30da6","row":10,"column":15,"n_neutrons":157,"n_protons":101,"n_electrons":101,"radioactive":true,"natural":null,"metal":true,"nonmetal":null,"metalloid":null,"atomic_radius":null,"electronegativity":1.3,"first_ionization":6.58,"melting_point":null,"boiling_point":null,"number_of_isotopes":33,"year":1955,"specific_heat":null,"n_shells":7,"n_valence":null,"jmol_color":"(0.702, 0.051, 0.651)","covalent_radius":null}}}]}