{"type":"data","nodes":[{"data":null},{"data":{"element":{"name":"Chromium","appearance":"silvery metallic","atomic_mass":51.99616,"category":"transition metal","density":7.19,"discoverer":"Louis Nicolas Vauquelin","molar_heat":23.35,"number":24,"period":4,"phase":"Solid","spectral_img":null,"summary":"Chromium is a chemical element with symbol Cr and atomic number 24. It is the first element in Group 6. It is a steely-gray, lustrous, hard and brittle metal which takes a high polish, resists tarnishing, and has a high melting point.","symbol":"Cr","shells":[2,8,13,1],"electron_configuration":"1s2 2s2 2p6 3s2 3p6 4s1 3d5","electron_configuration_semantic":"[Ar] 3d5 4s1","electron_affinity":65.21,"electronegativity_pauling":1.66,"ionization_energies":[652.9,1590.6,2987,4743,6702,8744.9,15455,17820,20190,23580,26130,28750,34230,37066,97510,105800,114300,125300,134700,144300,157700,166090,721870,761733],"cpk-hex":"8a99c7","row":4,"column":6,"n_neutrons":28,"n_protons":24,"n_electrons":24,"radioactive":null,"natural":true,"metal":true,"nonmetal":null,"metalloid":null,"atomic_radius":1.9,"electronegativity":1.66,"first_ionization":6.7665,"melting_point":2130.15,"boiling_point":2944,"number_of_isotopes":9,"year":1797,"specific_heat":0.449,"n_shells":4,"n_valence":null,"jmol_color":"(0.541, 0.6, 0.78)","covalent_radius":1.39}}}]}