{"type":"data","nodes":[{"data":null},{"data":{"element":{"name":"Lawrencium","appearance":null,"atomic_mass":266,"category":"actinide","density":null,"discoverer":"Lawrence Berkeley Laboratory","molar_heat":null,"number":103,"period":7,"phase":"Solid","spectral_img":null,"summary":"Lawrencium is a synthetic chemical element with chemical symbol Lr (formerly Lw) and atomic number 103. It is named in honor of Ernest Lawrence, inventor of the cyclotron, a device that was used to discover many artificial radioactive elements. A radioactive metal, lawrencium is the eleventh transuranic element and is also the final member of the actinide series.","symbol":"Lr","shells":[2,8,18,32,32,8,3],"electron_configuration":"1s2 2s2 2p6 3s2 3p6 4s2 3d10 4p6 5s2 4d10 5p6 6s2 4f14 5d10 6p6 7s2 5f14 7p1","electron_configuration_semantic":"[Rn] 5f14 7s2 7p1","electron_affinity":-30.04,"electronegativity_pauling":1.3,"ionization_energies":[470],"cpk-hex":"c70066","row":10,"column":17,"n_neutrons":159,"n_protons":103,"n_electrons":103,"radioactive":true,"natural":null,"metal":true,"nonmetal":null,"metalloid":null,"atomic_radius":null,"electronegativity":null,"first_ionization":null,"melting_point":null,"boiling_point":null,"number_of_isotopes":203,"year":1961,"specific_heat":null,"n_shells":7,"n_valence":null,"jmol_color":"(0.78, 0.0, 0.4)","covalent_radius":null}}}]}