{"type":"data","nodes":[{"data":null},{"data":{"element":{"name":"Nobelium","appearance":null,"atomic_mass":259,"category":"actinide","density":null,"discoverer":"Joint Institute for Nuclear Research","molar_heat":null,"number":102,"period":7,"phase":"Solid","spectral_img":null,"summary":"Nobelium is a synthetic chemical element with symbol No and atomic number 102. It is named in honor of Alfred Nobel, the inventor of dynamite and benefactor of science. A radioactive metal, it is the tenth transuranic element and is the penultimate member of the actinide series.","symbol":"No","shells":[2,8,18,32,32,8,2],"electron_configuration":"1s2 2s2 2p6 3s2 3p6 4s2 3d10 4p6 5s2 4d10 5p6 6s2 4f14 5d10 6p6 7s2 5f14","electron_configuration_semantic":"[Rn] 5f14 7s2","electron_affinity":-223.22,"electronegativity_pauling":1.3,"ionization_energies":[642],"cpk-hex":"bd0d87","row":10,"column":16,"n_neutrons":157,"n_protons":102,"n_electrons":102,"radioactive":true,"natural":null,"metal":true,"nonmetal":null,"metalloid":null,"atomic_radius":null,"electronegativity":1.3,"first_ionization":6.65,"melting_point":null,"boiling_point":null,"number_of_isotopes":73,"year":1958,"specific_heat":null,"n_shells":7,"n_valence":null,"jmol_color":"(0.741, 0.051, 0.529)","covalent_radius":null}}}]}