{"type":"data","nodes":[{"data":null},{"data":{"element":{"name":"Nickel","appearance":"lustrous, metallic, and silver with a gold tinge","atomic_mass":58.69344,"category":"transition metal","density":8.908,"discoverer":"Axel Fredrik Cronstedt","molar_heat":26.07,"number":28,"period":4,"phase":"Solid","spectral_img":null,"summary":"Nickel is a chemical element with symbol Ni and atomic number 28. It is a silvery-white lustrous metal with a slight golden tinge. Nickel belongs to the transition metals and is hard and ductile.","symbol":"Ni","shells":[2,8,16,2],"electron_configuration":"1s2 2s2 2p6 3s2 3p6 4s2 3d8","electron_configuration_semantic":"[Ar] 3d8 4s2","electron_affinity":111.65,"electronegativity_pauling":1.91,"ionization_energies":[737.1,1753,3395,5300,7339,10400,12800,15600,18600,21670,30970,34000,37100,41500,44800,48100,55101,58570,148700,159000,169400,182700,194000,205600,221400,231490,992718,1039668],"cpk-hex":"50d050","row":4,"column":10,"n_neutrons":31,"n_protons":28,"n_electrons":28,"radioactive":null,"natural":true,"metal":true,"nonmetal":null,"metalloid":null,"atomic_radius":1.6,"electronegativity":1.91,"first_ionization":7.6398,"melting_point":1726.15,"boiling_point":3186,"number_of_isotopes":11,"year":1751,"specific_heat":0.444,"n_shells":4,"n_valence":null,"jmol_color":"(0.314, 0.816, 0.314)","covalent_radius":1.24}}}]}