{"type":"data","nodes":[{"data":null},{"data":{"element":{"name":"Xenon","appearance":"colorless gas, exhibiting a blue glow when placed in a high voltage electric field","atomic_mass":131.2936,"category":"noble gas","density":5.894,"discoverer":"William Ramsay","molar_heat":null,"number":54,"period":5,"phase":"Gas","spectral_img":"https://wikipedia.org/wiki/File:Xenon_Spectrum.jpg","summary":"Xenon is a chemical element with symbol Xe and atomic number 54. It is a colorless, dense, odorless noble gas, that occurs in the Earth's atmosphere in trace amounts. Although generally unreactive, xenon can undergo a few chemical reactions such as the formation of xenon hexafluoroplatinate, the first noble gas compound to be synthesized.","symbol":"Xe","shells":[2,8,18,18,8],"electron_configuration":"1s2 2s2 2p6 3s2 3p6 4s2 3d10 4p6 5s2 4d10 5p6","electron_configuration_semantic":"[Kr] 4d10 5s2 5p6","electron_affinity":-77,"electronegativity_pauling":2.6,"ionization_energies":[1170.4,2046.4,3099.4],"cpk-hex":"429eb0","row":5,"column":18,"n_neutrons":77,"n_protons":54,"n_electrons":54,"radioactive":null,"natural":true,"metal":null,"nonmetal":true,"metalloid":null,"atomic_radius":1.2,"electronegativity":null,"first_ionization":12.1298,"melting_point":161.45,"boiling_point":165.03,"number_of_isotopes":31,"year":1898,"specific_heat":0.158,"n_shells":5,"n_valence":8,"jmol_color":"(0.259, 0.62, 0.69)","covalent_radius":1.4}}}]}