{"type":"data","nodes":[{"data":null},{"data":{"element":{"name":"Platinum","appearance":"silvery white","atomic_mass":195.0849,"category":"transition metal","density":21.45,"discoverer":"Antonio de Ulloa","molar_heat":25.86,"number":78,"period":6,"phase":"Solid","spectral_img":null,"summary":"Platinum is a chemical element with symbol Pt and atomic number 78. It is a dense, malleable, ductile, highly unreactive, precious, gray-white transition metal. Its name is derived from the Spanish term platina, which is literally translated into \"little silver\".","symbol":"Pt","shells":[2,8,18,32,17,1],"electron_configuration":"1s2 2s2 2p6 3s2 3p6 4s2 3d10 4p6 5s2 4d10 5p6 6s1 4f14 5d9","electron_configuration_semantic":"[Xe] 4f14 5d9 6s1","electron_affinity":205.041,"electronegativity_pauling":2.28,"ionization_energies":[870,1791],"cpk-hex":"d0d0e0","row":6,"column":10,"n_neutrons":117,"n_protons":78,"n_electrons":78,"radioactive":null,"natural":true,"metal":true,"nonmetal":null,"metalloid":null,"atomic_radius":1.8,"electronegativity":2.28,"first_ionization":8.9587,"melting_point":2045.15,"boiling_point":4098,"number_of_isotopes":32,"year":1735,"specific_heat":0.133,"n_shells":6,"n_valence":null,"jmol_color":"(0.816, 0.816, 0.878)","covalent_radius":1.36}}}]}