{"type":"data","nodes":[{"data":null},{"data":{"element":{"name":"Copernicium","appearance":null,"atomic_mass":285,"category":"transition metal","density":23.7,"discoverer":"Gesellschaft für Schwerionenforschung","molar_heat":null,"number":112,"period":7,"phase":"Gas","spectral_img":null,"summary":"Copernicium is a chemical element with symbol Cn and atomic number 112. It is an extremely radioactive synthetic element that can only be created in a laboratory. The most stable known isotope, copernicium-285, has a half-life of approximately 29 seconds, but it is possible that this copernicium isotope may have a nuclear isomer with a longer half-life, 8.9 min.","symbol":"Cn","shells":[2,8,18,32,32,18,2],"electron_configuration":"1s2 2s2 2p6 3s2 3p6 4s2 3d10 4p6 5s2 4d10 5p6 6s2 4f14 5d10 6p6 7s2 5f14 6d10","electron_configuration_semantic":"*[Rn] 5f14 6d10 7s2","electron_affinity":null,"electronegativity_pauling":null,"ionization_energies":[],"cpk-hex":null,"row":7,"column":12,"n_neutrons":173,"n_protons":112,"n_electrons":112,"radioactive":true,"natural":null,"metal":true,"nonmetal":null,"metalloid":null,"atomic_radius":null,"electronegativity":null,"first_ionization":null,"melting_point":null,"boiling_point":null,"number_of_isotopes":null,"year":1996,"specific_heat":null,"n_shells":7,"n_valence":null,"jmol_color":"","covalent_radius":null}}}]}