{"type":"data","nodes":[{"data":null},{"data":{"element":{"name":"Calcium","appearance":null,"atomic_mass":40.0784,"category":"alkaline earth metal","density":1.55,"discoverer":"Humphry Davy","molar_heat":25.929,"number":20,"period":4,"phase":"Solid","spectral_img":"https://wikipedia.org/wiki/File:Calcium_Spectrum.png","summary":"Calcium is a chemical element with symbol Ca and atomic number 20. Calcium is a soft gray alkaline earth metal, fifth-most-abundant element by mass in the Earth's crust. The ion Ca2+ is also the fifth-most-abundant dissolved ion in seawater by both molarity and mass, after sodium, chloride, magnesium, and sulfate.","symbol":"Ca","shells":[2,8,8,2],"electron_configuration":"1s2 2s2 2p6 3s2 3p6 4s2","electron_configuration_semantic":"[Ar] 4s2","electron_affinity":2.37,"electronegativity_pauling":1,"ionization_energies":[589.8,1145.4,4912.4,6491,8153,10496,12270,14206,18191,20385,57110,63410,70110,78890,86310,94000,104900,111711,494850,527762],"cpk-hex":"3dff00","row":4,"column":2,"n_neutrons":20,"n_protons":20,"n_electrons":20,"radioactive":null,"natural":true,"metal":true,"nonmetal":null,"metalloid":null,"atomic_radius":2.2,"electronegativity":1,"first_ionization":6.1132,"melting_point":1112.15,"boiling_point":1757,"number_of_isotopes":14,"year":1808,"specific_heat":0.647,"n_shells":4,"n_valence":2,"jmol_color":"(0.239, 1.0, 0.0)","covalent_radius":1.76}}}]}